# t (s)	mx ()	my ()	mz ()	E_total (J)	MaxAngle (rad)
0	1.1481425e-09	5.5966803e-10	0.9795362	-2.072577e-17	0.26627314
2.5373824744498183e-12	7.1604583e-10	9.218062e-10	0.97916	-2.0723826e-17	0.26323587
5.014765286657039e-12	4.897095e-10	9.876494e-10	0.9792827	-2.07217e-17	0.2626332
7.536861558207512e-12	7.0370026e-10	8.5596286e-10	0.97967255	-2.0719887e-17	0.26405764
1.0007966217248031e-11	5.5966803e-10	7.571979e-10	0.98029256	-2.0718785e-17	0.26650453
1.2527859716706521e-11	5.5966803e-10	3.950598e-10	0.98117155	-2.0718482e-17	0.2717561
1.504732664978248e-11	1.0370319e-09	4.938247e-10	0.98225087	-2.0718964e-17	0.27948335
1.7517020922763788e-11	7.8188916e-10	9.218062e-10	0.98340404	-2.0720047e-17	0.28754118
2.0035922650112745e-11	4.032902e-10	7.901196e-10	0.98455894	-2.0721548e-17	0.29975358
2.2505304597178434e-11	4.4032705e-10	6.58433e-10	0.9855752	-2.072318e-17	0.31163764
2.502397650293611e-11	4.032902e-10	3.950598e-10	0.98643154	-2.0724813e-17	0.32620725
2.754257738771634e-11	-4.9382474e-11	3.292165e-10	0.9870787	-2.0726282e-17	0.33758834
3.001171742475829e-11	4.9382474e-11	3.950598e-10	0.98750895	-2.0727503e-17	0.34942088
3.253021726289802e-11	-7.489675e-10	3.950598e-10	0.98775214	-2.0728537e-17	0.35620812
3.504866833223682e-11	1.0123407e-09	-9.218062e-10	0.9878172	-2.0729388e-17	0.35794932
3.7517694359876186e-11	2.5329094e-09	-1.3168659e-10	0.987733	-2.0730086e-17	0.35547173
4.003609211995337e-11	4.4032706e-09	2.6337318e-10	0.98752725	-2.0730671e-17	0.3496713
4.250507029232727e-11	3.757183e-09	1.777769e-09	0.9872432	-2.0731113e-17	0.3418754
4.5023380350854476e-11	-6.666634e-10	3.2263217e-09	0.9869069	-2.0731428e-17	0.3341063
4.7541659191005e-11	-4.364176e-09	5.925897e-10	0.9865591	-2.0731588e-17	0.32846597
5.0010529226969564e-11	-2.2057505e-09	-2.1069855e-09	0.9862363	-2.0731601e-17	0.32306015
5.252874883153008e-11	9.979375e-10	-2.6995752e-09	0.9859484	-2.0731485e-17	0.3181416
5.5046936337379463e-11	3.378584e-09	-6.58433e-10	0.9857182	-2.073127e-17	0.31416306
5.751572584534996e-11	3.3868146e-09	1.3827093e-09	0.9855566	-2.0730997e-17	0.31135625
6.003386671911157e-11	1.5287991e-09	2.436202e-09	0.98545885	-2.0730698e-17	0.30965653
6.250259539289555e-11	-1.0699536e-10	1.777769e-09	0.9854249	-2.0730422e-17	0.30906978
6.502068473301717e-11	-6.255113e-10	7.2427625e-10	0.98544514	-2.0730174e-17	0.30943033
6.75387380020979e-11	-2.3045155e-10	-1.3168659e-10	0.98550993	-2.0729988e-17	0.31056377
7.000741702770825e-11	7.119306e-10	-2.6337318e-10	0.9856044	-2.072987e-17	0.31220964
7.252544868875425e-11	1.1357969e-09	3.292165e-10	0.9857194	-2.0729811e-17	0.3142072
7.504348709901428e-11	9.629583e-10	3.950598e-10	0.98584104	-2.0729811e-17	0.3163137
7.751213110143033e-11	9.547279e-10	6.58433e-10	0.98595655	-2.0729853e-17	0.3183056
8.003014278078236e-11	7.345643e-10	6.58433e-10	0.9860622	-2.0729932e-17	0.32011986
8.254814355179358e-11	7.571979e-10	2.6337318e-10	0.9861496	-2.0730031e-17	0.32161304
8.501677870319271e-11	5.432072e-10	1.975299e-10	0.98621416	-2.0730137e-17	0.32271114
8.753477329644559e-11	5.946473e-10	3.950598e-10	0.98625726	-2.0730246e-17	0.32343996
9.000341314803278e-11	8.024652e-10	3.950598e-10	0.9862777	-2.0730346e-17	0.32378614
9.252140467614736e-11	9.0123015e-10	-1.3168659e-10	0.9862789	-2.0730435e-17	0.32380337
9.503940231141611e-11	1.5390871e-09	-6.5843296e-11	0.98626345	-2.0730508e-17	0.32353932
9.750802364756307e-11	1.2571955e-09	7.901196e-10	0.98623604	-2.0730562e-17	0.3230748
1.0002601006849094e-10	8.806541e-10	9.218062e-10	0.9862001	-2.0730595e-17	0.32246295
1.02544004297083e-10	1.0329168e-09	9.218062e-10	0.9861602	-2.0730612e-17	0.32178366
1.0501261347207205e-10	7.633707e-10	1.1851794e-09	0.9861211	-2.073061e-17	0.32111394
1.0753060337364433e-10	1.1728338e-10	1.1193361e-09	0.986084	-2.0730594e-17	0.32048032
1.1004858043337452e-10	4.773639e-10	4.609031e-10	0.9860523	-2.0730567e-17	0.31993833
1.1251720087116273e-10	2.3045155e-10	2.6337318e-10	0.98602796	-2.0730536e-17	0.31952173
1.1503519526766582e-10	5.2263116e-10	-1.3168659e-10	0.9860107	-2.0730501e-17	0.3192252
1.1750379851859454e-10	1.0102831e-09	6.5843296e-11	0.9860012	-2.0730466e-17	0.31906238
1.200217950514866e-10	1.2839443e-09	3.950598e-10	0.9859986	-2.0730435e-17	0.31901717
1.225397772680886e-10	1.2839443e-09	6.58433e-10	0.9860019	-2.0730408e-17	0.31907547
1.2500838319555847e-10	6.337417e-10	6.58433e-10	0.98600984	-2.0730389e-17	0.3192119
1.275263835771461e-10	7.366219e-10	5.2674637e-10	0.9860211	-2.0730375e-17	0.31940615
1.300443625163138e-10	9.17691e-10	6.58433e-10	0.9860343	-2.0730367e-17	0.31963196
1.325129750575389e-10	3.7859896e-10	1.0534927e-09	0.98604757	-2.0730365e-17	0.3198616
1.3503095977488565e-10	5.39092e-10	3.950598e-10	0.98606056	-2.0730372e-17	0.32008445
1.3754893177577327e-10	8.5596286e-10	5.2674637e-10	0.9860721	-2.073038e-17	0.32028043
1.4001754622897563e-10	6.0493527e-10	8.5596286e-10	0.98608124	-2.073039e-17	0.3204366
1.4253552965449568e-10	7.860044e-10	7.2427625e-10	0.98608804	-2.0730402e-17	0.3205535
1.4500413819518597e-10	7.716011e-10	3.292165e-10	0.9860921	-2.0730415e-17	0.32062447
1.47522119690726e-10	1.3806516e-09	3.292165e-10	0.98609406	-2.0730425e-17	0.3206549
1.5004010316337041e-10	1.3127507e-09	6.58433e-10	0.9860937	-2.0730433e-17	0.3206479
1.5250870669194112e-10	5.987625e-10	1.1851794e-09	0.98609155	-2.0730442e-17	0.32061177
1.5502668390704874e-10	9.053453e-11	7.901196e-10	0.98608804	-2.0730448e-17	0.32055295
1.5754467764649486e-10	7.201611e-11	1.3168659e-10	0.9860838	-2.0730455e-17	0.3204805
1.600132820221115e-10	6.5020256e-10	-6.5843296e-11	0.98607934	-2.0730455e-17	0.32040367
1.625312591530837e-10	1.1337393e-09	0	0.9860748	-2.073045e-17	0.32032683
1.650492349862449e-10	1.2242738e-09	3.292165e-10	0.98607075	-2.073045e-17	0.32025698
1.6751783966627313e-10	1.3353844e-09	6.58433e-10	0.9860674	-2.0730446e-17	0.3201998
1.7003581924277874e-10	1.2510226e-09	9.218062e-10	0.98606485	-2.0730445e-17	0.3201547
1.7250441983759308e-10	1.3004051e-09	1.2510226e-09	0.986063	-2.0730438e-17	0.32012516
1.7502239652503862e-10	6.666634e-10	1.5802392e-09	0.98606205	-2.0730435e-17	0.32010946
1.775403666785449e-10	-1.0493775e-10	9.218062e-10	0.986062	-2.0730432e-17	0.32010737
1.800089798867242e-10	2.5514277e-10	0	0.98606247	-2.073043e-17	0.32011625
1.8252694402508486e-10	7.8188916e-10	0	0.9860635	-2.0730428e-17	0.32013312
1.850449168477436e-10	1.1337393e-09	3.950598e-10	0.9860649	-2.0730427e-17	0.3201568
1.8751350510795305e-10	8.765389e-10	5.2674637e-10	0.98606634	-2.0730425e-17	0.32018182
1.9003148120017115e-10	8.785965e-10	5.925897e-10	0.9860679	-2.0730425e-17	0.3202083
1.9250008747293856e-10	6.028777e-10	7.901196e-10	0.9860694	-2.0730423e-17	0.32023272
1.9501805005538826e-10	4.979399e-10	6.58433e-10	0.9860705	-2.0730425e-17	0.32025373
1.9753601595331948e-10	6.625482e-10	5.2674637e-10	0.98607147	-2.0730427e-17	0.3202708
2.0000462703655047e-10	1.1028752e-09	0	0.98607224	-2.0730432e-17	0.32028252
2.0252258736090354e-10	1.2469075e-09	6.58433e-10	0.9860727	-2.073043e-17	0.32028973
2.0504054702012679e-10	7.613131e-10	1.2510226e-09	0.9860728	-2.0730432e-17	0.32029182
2.0750913281370047e-10	4.938247e-10	8.5596286e-10	0.9860727	-2.0730433e-17	0.3202903
2.100271032821917e-10	8.045228e-10	6.58433e-10	0.98607236	-2.0730435e-17	0.32028538
2.1254506225903746e-10	9.423822e-10	5.925897e-10	0.98607194	-2.0730432e-17	0.32027817
2.1501365292943506e-10	8.7036606e-10	4.609031e-10	0.98607147	-2.0730433e-17	0.32026982
2.1753161691690968e-10	9.999951e-10	6.58433e-10	0.986071	-2.0730435e-17	0.32026133
2.2000019968751097e-10	4.897095e-10	6.58433e-10	0.9860705	-2.0730433e-17	0.32025263
2.2251817059963174e-10	5.7818644e-10	4.609031e-10	0.98607004	-2.0730435e-17	0.32024524
2.2503612171451415e-10	3.395045e-10	1.975299e-10	0.9860697	-2.0730433e-17	0.32023898
2.2750471260280034e-10	7.3250667e-10	2.6337318e-10	0.98606944	-2.0730433e-17	0.32023424
2.300226778867975e-10	1.1193361e-09	5.925897e-10	0.98606914	-2.0730437e-17	0.3202314
2.3254062940859734e-10	9.876494e-10	8.5596286e-10	0.98606914	-2.0730433e-17	0.3202299
2.3500921569963486e-10	6.522602e-10	9.876494e-10	0.9860691	-2.0730432e-17	0.3202295
2.3752716464081656e-10	6.090505e-10	1.1193361e-09	0.9860692	-2.073043e-17	0.32023123
2.400451246795998e-10	4.753063e-10	9.876494e-10	0.9860694	-2.0730433e-17	0.3202335
2.425137044942872e-10	3.6419573e-10	5.925897e-10	0.9860695	-2.0730432e-17	0.32023558
2.4503166302365397e-10	1.8106906e-10	3.950598e-10	0.9860697	-2.073043e-17	0.32023898
2.4750023529870964e-10	3.353893e-10	3.292165e-10	0.9860699	-2.0730432e-17	0.320242
2.500181880811812e-10	4.691335e-10	1.3168659e-10	0.98607004	-2.0730433e-17	0.32024407
2.5253613259912646e-10	8.065804e-10	3.292165e-10	0.98607016	-2.0730432e-17	0.32024673
2.5500471105748056e-10	1.0267439e-09	3.292165e-10	0.9860702	-2.0730433e-17	0.32024863
2.575226684416212e-10	7.5514034e-10	7.901196e-10	0.9860703	-2.0730432e-17	0.32024977
2.600406111554862e-10	4.897095e-10	5.925897e-10	0.9860704	-2.073043e-17	0.32025033
2.6250918937705593e-10	5.452648e-10	5.2674637e-10	0.9860704	-2.073043e-17	0.3202509
2.650271458172377e-10	8.065804e-10	1.3168659e-10	0.9860704	-2.0730432e-17	0.32025054
2.6754507909033286e-10	7.448523e-10	1.3168659e-10	0.9860703	-2.0730432e-17	0.32024977
2.7001366643214864e-10	9.876494e-10	5.925897e-10	0.9860703	-2.0730433e-17	0.320249
2.725316055794515e-10	9.0534535e-10	9.218062e-10	0.9860702	-2.0730432e-17	0.32024845
2.7500017208545195e-10	5.884745e-10	5.925897e-10	0.9860702	-2.0730433e-17	0.3202469
2.7751812536517476e-10	4.2386622e-10	2.6337318e-10	0.98607016	-2.0730432e-17	0.32024598
2.800360600236347e-10	6.2345373e-10	3.292165e-10	0.9860701	-2.0730433e-17	0.32024506
2.8250463042959057e-10	1.0452623e-09	1.3168659e-10	0.98607	-2.0730433e-17	0.32024485
2.850225683247128e-10	1.1440273e-09	7.901196e-10	0.98607	-2.0730428e-17	0.3202439
2.875405194211618e-10	6.9958506e-10	9.218062e-10	0.98607	-2.073043e-17	0.3202435
2.9000907884907165e-10	4.115206e-10	9.218062e-10	0.98607	-2.0730432e-17	0.32024372
2.92527021971361e-10	4.5267268e-10	1.975299e-10	0.98607	-2.073043e-17	0.32024372
2.9504495675535604e-10	5.5966803e-10	3.292165e-10	0.98607	-2.073043e-17	0.3202439
2.975135254006333e-10	8.065804e-10	1.975299e-10	0.98607	-2.0730433e-17	0.32024428
3.000314710628913e-10	7.7983153e-10	5.2674637e-10	0.98607004	-2.0730433e-17	0.32024446
3.0250003093870965e-10	8.4773244e-10	8.5596286e-10	0.98607004	-2.0730433e-17	0.32024485
3.0501795655462246e-10	1.0637807e-09	9.218062e-10	0.98607	-2.0730433e-17	0.3202456
3.0753589058076325e-10	1.0390895e-09	7.901196e-10	0.9860701	-2.0730432e-17	0.32024541
3.1000445909300833e-10	7.7983153e-10	7.2427625e-10	0.9860701	-2.0730432e-17	0.3202458
3.1252238918394943e-10	2.4073957e-10	3.950598e-10	0.9860701	-2.0730432e-17	0.32024598
3.1504033030866146e-10	3.4979253e-10	1.975299e-10	0.9860701	-2.0730432e-17	0.3202458
3.175088873794505e-10	1.0493776e-09	1.6460824e-10	0.9860701	-2.0730432e-17	0.32024637
3.2002681750588577e-10	9.0534535e-10	7.901196e-10	0.9860701	-2.0730432e-17	0.32024616
3.225447504343339e-10	8.5184765e-10	7.901196e-10	0.98607016	-2.0730432e-17	0.3202458
3.2501331112106947e-10	5.967049e-10	4.609031e-10	0.9860701	-2.0730432e-17	0.32024616
3.275312430686145e-10	7.2427625e-10	3.950598e-10	0.9860701	-2.0730432e-17	0.32024541
3.300491773409518e-10	9.0946056e-10	7.901196e-10	0.9860701	-2.0730432e-17	0.3202458
3.3251773481257953e-10	8.9711494e-10	8.5596286e-10	0.9860701	-2.0730432e-17	0.32024541
3.350356651004766e-10	4.4032705e-10	5.925897e-10	0.9860701	-2.0730432e-17	0.3202456
3.375042219037152e-10	6.707786e-10	5.925897e-10	0.98607004	-2.0730432e-17	0.3202458
3.400221485722807e-10	4.773639e-10	1.3168659e-10	0.9860701	-2.0730432e-17	0.3202456
3.4254007934456383e-10	1.0205711e-09	1.975299e-10	0.9860701	-2.0730433e-17	0.32024541
3.45008630423765e-10	1.6028727e-09	3.950598e-10	0.9860701	-2.0730433e-17	0.32024524
3.475265582725807e-10	1.7407321e-09	5.2674637e-10	0.9860701	-2.0730432e-17	0.32024524
3.5004448052160165e-10	9.732463e-10	1.5802392e-09	0.98607	-2.0730432e-17	0.32024524
3.52513048010977e-10	5.349768e-11	1.1851794e-09	0.9860701	-2.0730432e-17	0.32024524
3.550309594881216e-10	-3.0658284e-10	3.292165e-10	0.9860701	-2.0730432e-17	0.32024506
3.57548889154108e-10	4.9382474e-11	-2.6337318e-10	0.9860701	-2.0730433e-17	0.3202456
3.600174467332129e-10	7.942348e-10	-4.609031e-10	0.98607	-2.0730432e-17	0.3202456
3.625353726864274e-10	1.938262e-09	3.292165e-10	0.9860701	-2.0730432e-17	0.32024524
3.650039218728458e-10	1.5678935e-09	5.925897e-10	0.9860701	-2.0730432e-17	0.3202456
3.6752184157523744e-10	1.1111057e-09	1.1193361e-09	0.9860701	-2.0730432e-17	0.32024524
3.700397741206166e-10	4.115206e-10	9.218062e-10	0.9860701	-2.0730432e-17	0.3202456
3.7250831775630883e-10	2.8806443e-10	3.950598e-10	0.9860701	-2.0730432e-17	0.3202458
3.750262441655031e-10	6.5020256e-10	1.3168659e-10	0.9860701	-2.0730432e-17	0.32024506
3.775441616672435e-10	9.999951e-10	6.5843296e-11	0.9860701	-2.0730432e-17	0.32024541
3.800127058918807e-10	1.3497876e-09	3.950598e-10	0.98607004	-2.0730432e-17	0.3202456
3.825306381884385e-10	1.1954674e-09	5.2674637e-10	0.9860701	-2.0730432e-17	0.3202458
3.8504854800250604e-10	1.0246863e-09	1.316866e-09	0.9860701	-2.0730432e-17	0.32024598
3.875171029788526e-10	4.732487e-10	1.2510226e-09	0.9860701	-2.0730432e-17	0.32024541
3.9003501014719145e-10	4.732487e-11	7.2427625e-10	0.9860701	-2.0730433e-17	0.32024541
3.9250356501855733e-10	3.4979252e-11	3.292165e-10	0.9860701	-2.0730432e-17	0.3202456
3.9502148486099415e-10	6.131657e-10	6.5843296e-11	0.9860701	-2.0730432e-17	0.32024541
3.975393964699963e-10	7.0987305e-10	6.5843296e-11	0.9860701	-2.0730432e-17	0.32024541
4.0000793923346974e-10	1.1378545e-09	6.5843296e-11	0.9860701	-2.0730432e-17	0.32024541
4.0252585658337817e-10	1.3209811e-09	5.2674637e-10	0.9860701	-2.0730432e-17	0.3202456
4.050437813433864e-10	1.2242738e-09	7.2427625e-10	0.9860701	-2.0730432e-17	0.3202458
4.075123260216515e-10	1.1357969e-09	9.218062e-10	0.9860701	-2.0730432e-17	0.32024506
4.1003023505583623e-10	9.79419e-10	1.0534927e-09	0.98607	-2.0730432e-17	0.3202456
4.1254814001187746e-10	4.6296067e-10	8.5596286e-10	0.9860701	-2.0730432e-17	0.32024541
4.1501669006204477e-10	5.7612887e-10	3.950598e-10	0.9860701	-2.0730432e-17	0.3202456
4.1753459536086225e-10	3.0452524e-10	2.6337318e-10	0.9860701	-2.0730432e-17	0.3202458
4.200031401176897e-10	4.835367e-10	1.6460824e-10	0.9860701	-2.0730432e-17	0.3202458
4.225210496912644e-10	6.3785693e-10	3.292165e-10	0.9860701	-2.0730432e-17	0.32024541
4.2503896244724164e-10	1.0205711e-09	2.6337318e-10	0.98607	-2.0730432e-17	0.32024541
4.275075072489743e-10	1.388882e-09	3.950598e-10	0.98607	-2.0730433e-17	0.3202456
4.3002542425390346e-10	1.3456724e-09	1.1851794e-09	0.9860701	-2.0730432e-17	0.32024524
4.3254333848111356e-10	7.9629237e-10	1.1851794e-09	0.9860701	-2.0730432e-17	0.32024541
4.3501188610091686e-10	5.6789845e-10	9.218062e-10	0.9860701	-2.0730432e-17	0.32024541
4.3752979581350246e-10	3.6213813e-10	4.609031e-10	0.9860701	-2.0730432e-17	0.3202456
4.40047704003365e-10	5.802441e-10	1.3168659e-10	0.9860701	-2.0730432e-17	0.3202456
4.425162494900877e-10	8.312716e-10	3.292165e-10	0.9860701	-2.0730432e-17	0.32024524
4.450341570360357e-10	8.662509e-10	3.950598e-10	0.9860701	-2.0730432e-17	0.32024541
4.475026967795628e-10	8.806541e-10	4.609031e-10	0.9860701	-2.0730432e-17	0.3202456
4.5002060775916937e-10	9.670734e-10	6.58433e-10	0.9860701	-2.0730432e-17	0.3202456
4.5253851582952223e-10	1.0925872e-09	5.2674637e-10	0.9860701	-2.0730432e-17	0.3202458
4.550070518618011e-10	5.432072e-10	7.901196e-10	0.9860701	-2.0730432e-17	0.3202456
4.575249643764661e-10	4.6501827e-10	4.609031e-10	0.9860701	-2.0730432e-17	0.32024541
4.600428695503561e-10	9.218062e-10	1.975299e-10	0.9860701	-2.0730432e-17	0.32024524
4.625114094909541e-10	1.0082255e-09	4.609031e-10	0.9860701	-2.0730432e-17	0.3202458
4.650293107081112e-10	6.3785693e-10	3.950598e-10	0.98607004	-2.0730432e-17	0.32024541
4.675472238708295e-10	4.9999754e-10	5.925897e-10	0.9860701	-2.0730432e-17	0.32024541
4.700157640831942e-10	6.172809e-10	1.3168659e-10	0.9860701	-2.0730432e-17	0.32024541
4.725336657054885e-10	6.748938e-10	3.950598e-10	0.98607004	-2.0730432e-17	0.32024541
4.750022075855749e-10	8.765389e-10	1.3168659e-10	0.9860701	-2.0730432e-17	0.32024524
4.775201110494776e-10	4.609031e-10	3.950598e-10	0.9860701	-2.0730432e-17	0.3202456
4.80038017770882e-10	9.341518e-10	3.292165e-10	0.9860701	-2.0730432e-17	0.32024524
4.825065518452646e-10	1.2016401e-09	3.950598e-10	0.9860701	-2.0730432e-17	0.3202458
4.850244641813573e-10	1.0349743e-09	7.901196e-10	0.9860701	-2.0730432e-17	0.3202456
4.875423612882432e-10	9.38267e-10	9.218062e-10	0.9860701	-2.0730432e-17	0.32024541
4.900108964456486e-10	6.748938e-10	4.609031e-10	0.9860701	-2.0730432e-17	0.3202458
4.9252880719996e-10	9.958798e-10	5.2674637e-10	0.9860701	-2.0730432e-17	0.32024541
4.95046715943499e-10	9.876494e-10	5.2674637e-10	0.9860701	-2.0730432e-17	0.32024541
4.975152459532296e-10	4.773639e-10	7.901196e-10	0.9860701	-2.0730432e-17	0.3202458
5.000331514947665e-10	4.6501827e-10	4.609031e-10	0.98607	-2.0730433e-17	0.32024541
5.025016850062866e-10	5.1234317e-10	2.6337318e-10	0.9860701	-2.0730432e-17	0.32024541
5.050195877519346e-10	7.7777396e-10	1.975299e-10	0.9860701	-2.0730432e-17	0.32024598
5.075374971212787e-10	9.547279e-10	0	0.9860701	-2.0730432e-17	0.32024541
5.100060295712895e-10	1.7695386e-09	4.609031e-10	0.9860701	-2.0730432e-17	0.3202456
5.125239339034283e-10	1.3292115e-09	5.2674637e-10	0.9860701	-2.0730432e-17	0.32024541
5.150418378589256e-10	1.4197461e-09	1.1193361e-09	0.98607004	-2.0730432e-17	0.3202456
5.175103738594156e-10	7.9217716e-10	1.316866e-09	0.9860701	-2.0730432e-17	0.32024541
5.200282843119963e-10	1.6255064e-10	7.2427625e-10	0.9860701	-2.0730432e-17	0.32024541
5.225461764116285e-10	3.930022e-10	1.3168659e-10	0.9860701	-2.0730432e-17	0.32024541
5.25014710221293e-10	3.930022e-10	-6.5843296e-11	0.9860701	-2.0730432e-17	0.32024541
5.275326096828462e-10	9.958798e-10	-1.3168659e-10	0.98607004	-2.0730432e-17	0.32024541
5.30001151717158e-10	1.6337368e-09	3.950598e-10	0.9860701	-2.0730432e-17	0.3202456
5.325190435633648e-10	1.5349718e-09	7.901196e-10	0.9860701	-2.0730432e-17	0.3202458
5.350369448767644e-10	1.3250964e-09	9.876494e-10	0.98607	-2.0730432e-17	0.3202456
5.375054759828535e-10	7.633707e-10	9.876494e-10	0.98607004	-2.0730432e-17	0.32024524
5.400233848661466e-10	1.8929948e-10	1.975299e-10	0.98607	-2.0730432e-17	0.32024524
5.42541286830783e-10	6.79009e-10	6.5843296e-11	0.9860701	-2.0730432e-17	0.3202456
5.450098145224341e-10	1.0370319e-09	1.975299e-10	0.9860701	-2.0730433e-17	0.3202458
5.475277169911004e-10	1.0493776e-09	3.950598e-10	0.98607004	-2.0730432e-17	0.32024524
5.50045619163881e-10	1.2263314e-09	7.2427625e-10	0.9860701	-2.0730432e-17	0.32024541
5.525141597923895e-10	8.580205e-10	6.58433e-10	0.98607004	-2.0730432e-17	0.32024524
5.550320638384792e-10	8.868269e-10	8.5596286e-10	0.98607	-2.0730432e-17	0.32024598
5.57500590580065e-10	6.79009e-10	5.2674637e-10	0.9860701	-2.0730432e-17	0.32024541
5.600184862430313e-10	6.79009e-10	6.58433e-10	0.9860701	-2.0730432e-17	0.32024541
5.625363916752401e-10	7.2427625e-10	9.218062e-10	0.98607004	-2.0730432e-17	0.3202456
5.650049194320103e-10	2.5925798e-10	5.2674637e-10	0.98607	-2.0730432e-17	0.32024541
5.675228233847127e-10	5.967049e-10	1.3168659e-10	0.98607	-2.0730432e-17	0.32024541
5.70040721270331e-10	9.0946056e-10	1.3168659e-10	0.98607004	-2.0730432e-17	0.32024541
5.725092492400249e-10	8.806541e-10	6.58433e-10	0.9860701	-2.0730432e-17	0.32024541
5.750271510344321e-10	5.925897e-10	7.2427625e-10	0.9860701	-2.0730432e-17	0.3202456
5.775450462902516e-10	5.432072e-10	3.950598e-10	0.9860701	-2.0730432e-17	0.3202458
5.800135706737402e-10	7.1604583e-10	3.292165e-10	0.9860701	-2.0730432e-17	0.32024541
5.825314711344642e-10	4.979399e-10	5.2674637e-10	0.9860701	-2.0730432e-17	0.3202456
5.850000045893914e-10	6.748938e-10	1.975299e-10	0.9860701	-2.0730432e-17	0.32024541
5.875179131409241e-10	8.045228e-10	5.2674637e-10	0.9860701	-2.0730432e-17	0.32024541
5.900357991022897e-10	1.3312692e-09	8.230412e-10	0.9860701	-2.0730432e-17	0.3202456
5.925043303254967e-10	9.2592134e-10	7.2427625e-10	0.98607	-2.0730433e-17	0.3202456
5.95022231781412e-10	6.8723943e-10	8.5596286e-10	0.98607004	-2.0730432e-17	0.3202456
5.97540124953851e-10	3.0864045e-10	8.5596286e-10	0.9860701	-2.0730432e-17	0.32024541
6.000086616281274e-10	5.411496e-10	4.609031e-10	0.98607004	-2.0730432e-17	0.3202458
6.025265544318764e-10	5.452648e-10	3.950598e-10	0.9860701	-2.0730432e-17	0.32024541
6.050444477196812e-10	1.1008177e-09	0	0.9860701	-2.0730432e-17	0.32024598
6.075129819219529e-10	1.316866e-09	5.925897e-10	0.9860701	-2.0730432e-17	0.32024541
6.100308810003671e-10	1.1687186e-09	1.1851794e-09	0.9860701	-2.0730432e-17	0.32024541
6.125487826656369e-10	7.613131e-10	1.1193361e-09	0.9860701	-2.0730432e-17	0.32024541
6.150172971916776e-10	2.2839394e-10	7.901196e-10	0.9860701	-2.0730432e-17	0.3202456
6.175351970440894e-10	1.5637783e-10	6.5843296e-11	0.9860701	-2.0730432e-17	0.32024598
6.200037302888928e-10	8.4979007e-10	-1.3168659e-10	0.9860701	-2.0730432e-17	0.3202456
6.225216264354755e-10	1.1440273e-09	5.925897e-10	0.9860701	-2.0730432e-17	0.3202456
6.250395239970715e-10	8.991725e-10	7.2427625e-10	0.9860701	-2.0730432e-17	0.32024541
6.275080466651e-10	6.728362e-10	4.609031e-10	0.9860701	-2.0730432e-17	0.3202456
6.300259491637932e-10	1.2098705e-09	5.2674637e-10	0.98607004	-2.0730432e-17	0.32024541
6.325438481653556e-10	8.683085e-10	4.609031e-10	0.9860701	-2.0730432e-17	0.32024541
6.350123755709777e-10	5.925897e-10	7.901196e-10	0.9860701	-2.0730432e-17	0.3202456
6.375302646522987e-10	1.09876e-09	5.2674637e-10	0.9860701	-2.0730432e-17	0.3202456
6.400481664293693e-10	8.6007806e-10	4.938247e-10	0.9860701	-2.0730432e-17	0.3202456
6.425166910572525e-10	1.1481425e-09	6.5843296e-11	0.98607	-2.0730432e-17	0.3202458
6.450345851731469e-10	1.6131608e-09	5.2674637e-10	0.9860701	-2.0730432e-17	0.32024541
6.475031098029035e-10	8.683085e-10	6.58433e-10	0.9860701	-2.0730432e-17	0.32024541
6.500210106306542e-10	7.8806195e-10	5.2674637e-10	0.9860701	-2.0730432e-17	0.3202456
6.525389035024247e-10	9.0946056e-10	6.5843296e-11	0.9860701	-2.0730432e-17	0.32024524
6.550074426473677e-10	8.3744445e-10	2.3045155e-10	0.9860701	-2.0730432e-17	0.32024541
6.575253371901842e-10	1.2427922e-09	7.2427625e-10	0.98607	-2.0730432e-17	0.3202456
6.600432331113402e-10	1.197525e-09	7.901196e-10	0.9860701	-2.0730432e-17	0.3202456
6.62511756932358e-10	4.5267268e-10	5.2674637e-10	0.9860701	-2.0730432e-17	0.32024541
6.650296646862927e-10	5.432072e-10	5.925897e-10	0.9860701	-2.0730432e-17	0.3202456
6.67547553649435e-10	5.576104e-10	2.6337318e-10	0.9860701	-2.0730432e-17	0.3202458
6.700160781984141e-10	8.106956e-10	1.975299e-10	0.9860701	-2.0730432e-17	0.32024541
6.725339736721666e-10	9.0534535e-10	0	0.9860701	-2.0730432e-17	0.32024541
6.750025029984017e-10	1.078184e-09	2.6337318e-10	0.9860701	-2.0730432e-17	0.3202456
6.775203978705205e-10	8.08638e-10	6.58433e-10	0.9860701	-2.0730433e-17	0.32024524
6.800382863651217e-10	4.135782e-10	6.58433e-10	0.98607004	-2.0730432e-17	0.32024524
6.825068124295087e-10	5.555528e-10	1.975299e-10	0.98607016	-2.0730432e-17	0.3202456
6.850247077089885e-10	6.810666e-10	6.5843296e-11	0.98607004	-2.0730432e-17	0.3202456
6.875426117170871e-10	7.427947e-10	2.6337318e-10	0.9860701	-2.0730432e-17	0.3202458
6.9001114189994e-10	9.423822e-10	1.3168659e-10	0.9860701	-2.0730432e-17	0.32024541
6.92529037214709e-10	7.1604583e-10	6.58433e-10	0.9860701	-2.0730432e-17	0.3202456
6.950469278881187e-10	3.8271417e-10	5.925897e-10	0.9860701	-2.0730432e-17	0.3202456
6.97515452880352e-10	5.7407123e-10	5.2674637e-10	0.9860701	-2.0730432e-17	0.32024598
7.000333510876749e-10	5.2263116e-10	3.950598e-10	0.98607004	-2.0730432e-17	0.32024541
7.025018786471548e-10	6.748938e-10	-1.975299e-10	0.9860701	-2.0730432e-17	0.32024598
7.050197677555791e-10	1.0802416e-09	6.5843296e-11	0.9860701	-2.0730432e-17	0.3202458
7.075376683542068e-10	9.547279e-10	5.2674637e-10	0.98607004	-2.0730432e-17	0.32024598
7.100061928357933e-10	8.5596286e-10	1.975299e-10	0.98607	-2.0730432e-17	0.3202458
7.125240861408239e-10	9.69131e-10	5.2674637e-10	0.98607	-2.0730432e-17	0.3202458
7.150419779662019e-10	9.341518e-10	5.2674637e-10	0.9860701	-2.0730432e-17	0.3202458
7.175104982272926e-10	5.925897e-10	5.925897e-10	0.98607004	-2.0730432e-17	0.32024524
7.200283974471075e-10	7.1810347e-10	1.3168659e-10	0.9860701	-2.0730432e-17	0.32024524
7.22546288415964e-10	1.2263314e-09	6.5843296e-11	0.9860701	-2.0730432e-17	0.3202458
7.250148102230337e-10	1.5925847e-09	6.58433e-10	0.9860701	-2.0730432e-17	0.32024541
7.27532708993996e-10	1.218101e-09	9.876494e-10	0.9860701	-2.0730432e-17	0.3202456
7.300012344931488e-10	9.670734e-10	1.4485525e-09	0.98607	-2.0730432e-17	0.32024598
7.325191282128279e-10	3.1892847e-10	1.1851794e-09	0.9860701	-2.0730432e-17	0.32024541
7.350370291456801e-10	3.0041003e-10	5.2674637e-10	0.98607004	-2.0730432e-17	0.3202456
7.375055510154003e-10	5.2674637e-10	-2.6337318e-10	0.9860701	-2.0730432e-17	0.3202458
7.400234449498211e-10	1.0123407e-09	-2.6337318e-10	0.9860701	-2.0730433e-17	0.32024541
7.425413442627568e-10	1.0452623e-09	2.6337318e-10	0.9860701	-2.0730432e-17	0.3202456
7.450098723926231e-10	1.316866e-09	5.2674637e-10	0.98607004	-2.0730432e-17	0.3202456
7.475277608594256e-10	1.2057554e-09	4.609031e-10	0.98607	-2.0730432e-17	0.32024524
7.500456519947169e-10	1.0658384e-09	8.5596286e-10	0.9860701	-2.0730432e-17	0.3202458
7.5251418115708e-10	5.925897e-10	1.316866e-09	0.98607	-2.0730432e-17	0.32024541
7.550320761516385e-10	6.172809e-10	8.5596286e-10	0.9860701	-2.0730432e-17	0.3202458
7.575006069316679e-10	4.979399e-10	2.6337318e-10	0.9860701	-2.0730432e-17	0.32024541
7.600184942548363e-10	5.5966803e-10	2.6337318e-10	0.9860701	-2.0730432e-17	0.32024541
7.625363960417053e-10	8.5596286e-10	5.2674637e-10	0.9860701	-2.0730433e-17	0.3202458
7.650049121836192e-10	7.263339e-10	3.950598e-10	0.9860701	-2.0730433e-17	0.32024541
7.675228093638771e-10	4.773639e-10	5.2674637e-10	0.9860701	-2.0730432e-17	0.32024541
7.700407115338976e-10	5.534952e-10	4.609031e-10	0.9860701	-2.0730432e-17	0.3202456
7.725092375063209e-10	9.629583e-10	1.3168659e-10	0.9860701	-2.0730432e-17	0.32024541
7.750271351332551e-10	1.0123407e-09	5.925897e-10	0.98607004	-2.0730432e-17	0.32024541
7.775450206246838e-10	6.810666e-10	5.925897e-10	0.98607004	-2.0730432e-17	0.3202458
7.800135554931902e-10	5.246888e-10	5.925897e-10	0.9860701	-2.0730432e-17	0.32024541
7.825314478076529e-10	5.349768e-10	3.950598e-10	0.9860701	-2.0730433e-17	0.3202456
7.850493431576415e-10	8.888845e-10	1.3168659e-10	0.98607	-2.0730432e-17	0.32024524
7.875178596265004e-10	9.320942e-10	5.2674637e-10	0.9860701	-2.0730432e-17	0.32024598
7.900357546109963e-10	9.567854e-10	5.2674637e-10	0.98607	-2.0730432e-17	0.3202456
7.925042759798371e-10	6.0082006e-10	6.58433e-10	0.9860701	-2.0730432e-17	0.3202458
7.95022174499109e-10	9.2386376e-10	3.950598e-10	0.98607004	-2.0730432e-17	0.32024541
7.975400694353529e-10	7.222187e-10	9.218062e-10	0.9860701	-2.0730432e-17	0.32024541
8.000085883728409e-10	7.860044e-10	9.218062e-10	0.9860701	-2.0730432e-17	0.32024524
8.025264891689422e-10	4.4238466e-10	9.218062e-10	0.98607004	-2.0730432e-17	0.32024541
8.050443801070337e-10	1.5432022e-10	3.292165e-10	0.9860701	-2.0730432e-17	0.32024506
8.075129030424213e-10	6.810666e-10	0	0.9860701	-2.0730432e-17	0.32024506
8.100307946929798e-10	1.1357969e-09	3.292165e-10	0.9860701	-2.0730432e-17	0.3202456
8.125486951653086e-10	8.662509e-10	5.925897e-10	0.98607004	-2.0730432e-17	0.3202456
8.150172155113469e-10	5.946473e-10	3.292165e-10	0.9860701	-2.0730432e-17	0.32024541
8.175351124564643e-10	1.3847669e-09	5.2674637e-10	0.9860701	-2.0730432e-17	0.3202456
8.200036373257782e-10	9.958798e-10	9.876494e-10	0.98607	-2.0730432e-17	0.32024541
8.225215277075368e-10	8.5184765e-10	9.876494e-10	0.9860701	-2.0730433e-17	0.32024541
8.250394171051681e-10	3.950598e-10	7.901196e-10	0.9860701	-2.0730432e-17	0.32024506
8.275079486415445e-10	2.3456675e-10	7.901196e-10	0.98607	-2.0730432e-17	0.3202456
8.300258429092424e-10	-8.230412e-11	5.2674637e-10	0.9860701	-2.0730432e-17	0.32024541
8.325437366871779e-10	4.2798143e-10	3.292165e-10	0.9860701	-2.0730433e-17	0.3202456
8.350122574414958e-10	7.3250667e-10	0	0.9860701	-2.0730432e-17	0.32024598
8.375301504528596e-10	1.0185135e-09	2.6337318e-10	0.9860701	-2.0730432e-17	0.3202458
8.400480450386412e-10	1.2654259e-09	9.218062e-10	0.9860701	-2.0730432e-17	0.3202458
8.425165688383092e-10	3.4979253e-10	1.316866e-09	0.9860701	-2.0730432e-17	0.3202458
8.450344594483689e-10	1.8724187e-10	9.876494e-10	0.9860701	-2.0730432e-17	0.32024541
8.475029834614292e-10	-8.230412e-12	5.2674637e-10	0.98607	-2.073043e-17	0.32024524
8.500208777134096e-10	4.917671e-10	-2.6337318e-10	0.9860701	-2.0730432e-17	0.32024524
8.525387669757541e-10	9.547279e-10	-1.975299e-10	0.9860701	-2.0730432e-17	0.32024541
8.55007302307663e-10	1.088472e-09	3.950598e-10	0.9860701	-2.0730432e-17	0.3202456
8.575251999403774e-10	1.4197461e-09	6.58433e-10	0.9860701	-2.0730433e-17	0.32024598
8.600430888421716e-10	7.489675e-10	1.0534927e-09	0.9860701	-2.0730432e-17	0.3202456
8.625116052249348e-10	3.950598e-10	8.5596286e-10	0.9860701	-2.0730433e-17	0.3202456
8.650295058900456e-10	2.057603e-11	5.925897e-10	0.98607	-2.0730432e-17	0.32024541
8.67547390032244e-10	4.0740541e-10	-1.975299e-10	0.9860701	-2.0730432e-17	0.3202456
8.700159112980175e-10	9.506126e-10	-6.5843296e-11	0.9860701	-2.0730432e-17	0.3202458
8.725338086766645e-10	1.6460824e-09	1.975299e-10	0.98607004	-2.0730432e-17	0.32024541
8.750023361788858e-10	1.5967e-09	1.0534927e-09	0.9860701	-2.0730432e-17	0.3202458
8.775202230206711e-10	7.571979e-10	1.8436124e-09	0.98607	-2.0730432e-17	0.3202458
8.800381242529293e-10	2.4279717e-10	1.1851794e-09	0.9860701	-2.0730432e-17	0.32024598
8.825066435355395e-10	-1.6460824e-11	3.950598e-10	0.9860701	-2.0730432e-17	0.32024524
8.850245337018048e-10	1.6255064e-10	-2.6337318e-10	0.9860701	-2.0730432e-17	0.32024541