# t (s)	mx ()	my ()	mz ()	E_total (J)	MaxAngle (rad)
0	4.176934e-10	1.3168659e-10	0.99555576	-1.288494e-16	0.6543924
2.599032167607388e-12	2.1399071e-10	5.925897e-10	0.99266446	-1.2874072e-16	0.57046586
5.182971023663467e-12	-3.6213813e-10	3.292165e-10	0.98907596	-1.2842344e-16	0.56796247
7.684538423978821e-12	-5.925897e-10	-1.316866e-09	0.98554075	-1.2780359e-16	0.57882804
1.004612783025878e-11	2.9629483e-09	-2.716036e-09	0.98220956	-1.2677244e-16	0.62894714
1.2660197172348062e-11	1.0337398e-08	5.267464e-09	0.9751476	-1.2483504e-16	0.65845597
1.5059064811455683e-11	-2.399165e-09	2.7390811e-08	0.95333064	-1.2294381e-16	0.65023893
1.7567944376384042e-11	-5.5769274e-08	1.7909377e-08	0.9024311	-1.2279487e-16	0.416895
2.01057704259833e-11	-8.5596284e-08	-5.590096e-08	0.8389525	-1.2161331e-16	0.33090392
2.259062262902736e-11	4.1645887e-08	-1.6487162e-07	0.7720091	-1.1721538e-16	0.46637365
2.5179121636671182e-11	1.394561e-07	-3.595044e-07	0.6883417	-1.0778592e-16	0.6920261
2.7612472651451592e-11	-8.023006e-08	-3.712245e-07	0.5987105	-1.07884965e-16	0.7507209
3.017833007169979e-11	2.5217982e-08	-5.4781623e-08	0.5494206	-1.149987e-16	0.55203736
3.2705369395483915e-11	4.2995673e-08	5.7349514e-08	0.53160655	-1.146975e-16	0.58919317
3.504228625810489e-11	-1.158842e-08	5.7020294e-08	0.52046794	-1.1450158e-16	0.6398185
3.7747818446059006e-11	-6.8337116e-08	4.0485396e-08	0.5108948	-1.1515806e-16	0.68443894
4.016768933697134e-11	-7.95387e-08	3.0222072e-08	0.5045137	-1.1632842e-16	0.70101124
4.257715351311007e-11	-5.430426e-08	2.6798222e-08	0.4992019	-1.1760047e-16	0.6941728
4.527107712464849e-11	-1.2855904e-08	2.4691236e-08	0.49370268	-1.1876346e-16	0.67711556
4.7671172475694484e-11	1.4123387e-08	2.3242684e-08	0.48894686	-1.1948383e-16	0.65785265
5.005892867393158e-11	2.6320858e-08	2.1201542e-08	0.48436007	-1.1995768e-16	0.6329142
5.276075287553237e-11	2.793402e-08	1.758016e-08	0.47944227	-1.202931e-16	0.60783195
5.515122181201941e-11	2.4057496e-08	1.3432032e-08	0.47540903	-1.2047587e-16	0.5966976
5.7551836419096794e-11	1.9785912e-08	9.448513e-09	0.47170538	-1.2059195e-16	0.58749634
6.024083190750444e-11	1.6279754e-08	6.5184866e-09	0.46799704	-1.2067164e-16	0.5770167
6.263868134558713e-11	1.3687176e-08	4.938247e-09	0.4650852	-1.2071444e-16	0.567051
6.502888760630932e-11	1.1753029e-08	4.0822843e-09	0.4625429	-1.2074036e-16	0.56253844
6.772528569144e-11	9.876494e-09	2.897105e-09	0.46008557	-1.2075682e-16	0.5634541
7.011635854728765e-11	7.818891e-09	3.3415473e-09	0.458244	-1.2076425e-16	0.56309164
7.25124861690234e-11	6.3209566e-09	3.473234e-09	0.45668662	-1.2076748e-16	0.5624863
7.520316657169744e-11	4.7407176e-09	2.8312617e-09	0.4552451	-1.2076801e-16	0.56144917
7.759823901058613e-11	3.7036854e-09	2.3374371e-09	0.4542041	-1.2076689e-16	0.5606766
8.02894732947725e-11	2.897105e-09	1.876534e-09	0.4532705	-1.2076466e-16	0.55994534
8.268370267641773e-11	2.9629483e-09	9.218062e-10	0.45262003	-1.207623e-16	0.55933523
8.507633850440219e-11	2.8312617e-09	9.218062e-10	0.45211315	-1.2075986e-16	0.5588119
8.776884854715262e-11	2.5020452e-09	1.2510226e-09	0.45168564	-1.2075721e-16	0.5583465
9.01616180379737e-11	2.534967e-09	8.888845e-10	0.4514104	-1.207551e-16	0.5580421
9.255472175298573e-11	2.534967e-09	8.888845e-10	0.4512148	-1.2075322e-16	0.55786794
9.524668083207609e-11	2.1728288e-09	4.938247e-10	0.45107013	-1.2075142e-16	0.55780435
9.763969175495008e-11	2.436202e-09	-1.975299e-10	0.45099327	-1.2075012e-16	0.5577842
1.00032395493846e-10	2.8065705e-09	1.975299e-10	0.45095316	-1.2074905e-16	0.55779135
1.0272457129036901e-10	2.617271e-09	7.2427625e-10	0.45094013	-1.207481e-16	0.55782336
1.0511730150214479e-10	2.518506e-09	5.7612887e-10	0.4509488	-1.2074747e-16	0.55786467
1.075102793888584e-10	2.3868196e-09	4.938247e-10	0.45096993	-1.20747e-16	0.55791295
1.102021744452311e-10	1.958838e-09	6.58433e-10	0.45100278	-1.2074661e-16	0.5579691
1.1259500372402422e-10	2.1892896e-09	1.6460824e-10	0.4510359	-1.2074639e-16	0.55801827
1.1528686390335625e-10	2.0905246e-09	5.5966803e-10	0.45107418	-1.2074624e-16	0.55806917
1.176795315927978e-10	2.353898e-09	3.2921648e-11	0.45110714	-1.2074616e-16	0.5581084
1.200723685185088e-10	2.4855844e-09	5.925897e-10	0.45113793	-1.2074615e-16	0.55814207
1.2276416894971925e-10	2.757188e-09	1.6460824e-10	0.45116895	-1.2074616e-16	0.5581715
1.2515657803477815e-10	2.5678886e-09	6.255113e-10	0.45119298	-1.207462e-16	0.55819273
1.2754955928997734e-10	2.2057505e-09	6.9135464e-10	0.45121357	-1.2074623e-16	0.55820864
1.3024110880314347e-10	2.0740638e-09	9.876495e-11	0.45123276	-1.2074628e-16	0.55822974
1.3263393840174906e-10	2.3045155e-09	-6.5843296e-11	0.4512466	-1.2074635e-16	0.5582422
1.350260792486352e-10	2.6008102e-09	3.950598e-10	0.45125765	-1.207464e-16	0.5582499
1.3771807567108987e-10	2.7983402e-09	5.2674637e-10	0.45126724	-1.2074645e-16	0.55825365
1.401105448158864e-10	2.633732e-09	1.3168659e-10	0.45127362	-1.207465e-16	0.5582535
1.4250323888030512e-10	2.7654186e-09	3.6213813e-10	0.45127827	-1.2074653e-16	0.558251
1.4519488820812345e-10	2.5431974e-09	6.5843296e-11	0.45128188	-1.2074658e-16	0.55824685
1.4758722326097963e-10	2.6995752e-09	3.292165e-10	0.45128393	-1.207466e-16	0.5582423
1.5027892709017872e-10	2.6501927e-09	8.230412e-10	0.4512852	-1.2074664e-16	0.55823624
1.5267142410665747e-10	2.633732e-09	5.925897e-10	0.4512857	-1.2074666e-16	0.5582306
1.5506388638626655e-10	2.6831144e-09	7.571979e-10	0.45128578	-1.2074666e-16	0.55822504
1.577554365701384e-10	2.7983402e-09	4.2798143e-10	0.45128545	-1.2074669e-16	0.55822015
1.601478174510572e-10	2.716036e-09	8.888845e-10	0.45128497	-1.2074669e-16	0.5582159
1.6254032725707843e-10	2.5020452e-09	1.0534927e-09	0.4512844	-1.2074669e-16	0.5582119
1.652316336106905e-10	2.436202e-09	2.3045155e-10	0.45128366	-1.2074672e-16	0.5582075
1.6762403580968613e-10	2.3045155e-09	3.950598e-10	0.45128307	-1.207467e-16	0.55820477
1.7001611834549067e-10	2.3045155e-09	-6.5843296e-11	0.4512824	-1.2074673e-16	0.55820256
1.727073585992908e-10	2.518506e-09	4.115206e-10	0.4512818	-1.207467e-16	0.55820173
1.7509958348095638e-10	2.5678886e-09	2.9629485e-10	0.45128125	-1.207467e-16	0.5582005
1.7779077282911711e-10	2.2386721e-09	3.6213813e-10	0.45128077	-1.2074672e-16	0.5581983
1.8018303479890355e-10	2.419741e-09	2.6337318e-10	0.45128042	-1.2074672e-16	0.55819786
1.8257528176093183e-10	2.378589e-09	2.6337318e-10	0.45128015	-1.207467e-16	0.55819786
1.8526629075449735e-10	2.436202e-09	4.609031e-10	0.45127982	-1.207467e-16	0.5581983
1.8765870265676382e-10	2.4032802e-09	3.2921648e-11	0.4512796	-1.207467e-16	0.5581981
1.900507041265427e-10	2.7242664e-09	3.2921648e-11	0.45127952	-1.207467e-16	0.5581983
1.9274205879944045e-10	2.6090408e-09	9.876495e-11	0.45127934	-1.2074669e-16	0.55819756
1.9513397282049924e-10	2.4526627e-09	7.078154e-10	0.4512793	-1.207467e-16	0.5581981
1.9752644038639465e-10	2.2715938e-09	4.115206e-10	0.45127925	-1.207467e-16	0.5581987
2.0021742378800286e-10	2.0082205e-09	-3.2921648e-11	0.45127922	-1.207467e-16	0.55819887
2.0260986439569685e-10	2.2057505e-09	-6.5843296e-11	0.45127922	-1.207467e-16	0.5581991
2.0500177734152127e-10	2.6995752e-09	4.609031e-10	0.45127922	-1.207467e-16	0.5581991
2.076931176251806e-10	2.633732e-09	2.6337318e-10	0.45127922	-1.207467e-16	0.55819947
2.10085239095242e-10	2.6831144e-09	2.3045155e-10	0.45127922	-1.207467e-16	0.5582001
2.127765216816891e-10	2.5020452e-09	3.7859896e-10	0.45127922	-1.207467e-16	0.55819964
2.1516852493055846e-10	2.419741e-09	1.3168659e-10	0.45127922	-1.2074669e-16	0.55819976
2.1756091729772678e-10	2.5678886e-09	1.3168659e-10	0.45127922	-1.2074669e-16	0.5581995
2.202520664836712e-10	2.5843494e-09	-6.5843296e-11	0.45127928	-1.2074669e-16	0.5582006
2.2264438705333567e-10	2.5514277e-09	-2.6337318e-10	0.4512793	-1.207467e-16	0.5582006
2.25036444279492e-10	2.8065705e-09	-9.876495e-11	0.45127934	-1.2074669e-16	0.5582006
2.2772756837317552e-10	3.0123308e-09	1.3168659e-10	0.45127934	-1.2074669e-16	0.55820006
2.301196442884072e-10	2.9217964e-09	1.6460824e-10	0.45127934	-1.2074668e-16	0.55819964
2.3251200208670454e-10	2.9382572e-09	2.6337318e-10	0.45127934	-1.2074669e-16	0.55819964
2.352031315276496e-10	2.4526627e-09	5.5966803e-10	0.45127934	-1.2074669e-16	0.5582007
2.3759543253622266e-10	2.5020452e-09	7.2427625e-10	0.45127934	-1.2074669e-16	0.5582007
2.402866454475845e-10	2.3045155e-09	5.2674637e-10	0.45127934	-1.2074668e-16	0.5581999
2.4267864486367293e-10	2.1399071e-09	6.58433e-10	0.45127934	-1.2074669e-16	0.55819976
2.450710113920711e-10	2.3045155e-09	9.876495e-11	0.45127934	-1.2074668e-16	0.5581999
2.4776201138222283e-10	2.2715938e-09	1.975299e-10	0.45127934	-1.2074669e-16	0.55820113
2.5015430086324004e-10	1.9752988e-09	3.950598e-10	0.45127934	-1.2074669e-16	0.558201
2.52546375498298e-10	2.0740638e-09	5.5966803e-10	0.45127934	-1.2074669e-16	0.55820125
2.5523765682140997e-10	2.2057505e-09	-3.2921648e-11	0.45127934	-1.2074668e-16	0.55820024
2.5762981387997136e-10	2.4032802e-09	1.3168659e-10	0.45127934	-1.2074669e-16	0.5582007
2.6002217977106493e-10	2.4855844e-09	-2.3045155e-10	0.45127934	-1.2074668e-16	0.5582009
2.627130310322434e-10	2.1728288e-09	9.876495e-11	0.45127934	-1.2074669e-16	0.55820125
2.6510545193730303e-10	2.1728288e-09	4.115206e-10	0.45127934	-1.2074669e-16	0.558201
2.6779650624866174e-10	2.2715938e-09	0	0.45127934	-1.2074668e-16	0.5582009
2.701888345422225e-10	2.1728288e-09	3.292165e-10	0.45127934	-1.2074668e-16	0.558201
2.725806617091925e-10	2.534967e-09	2.6337318e-10	0.45127934	-1.2074668e-16	0.558201
2.7527222082211655e-10	2.8806442e-09	2.9629485e-10	0.45127934	-1.2074669e-16	0.558201
2.776640257411734e-10	2.436202e-09	2.3045155e-10	0.45127934	-1.2074669e-16	0.5582009
2.80056441411349e-10	2.3868196e-09	4.115206e-10	0.45127934	-1.2074668e-16	0.5582005
2.8274723941546314e-10	2.436202e-09	3.292165e-10	0.45127934	-1.2074668e-16	0.5582013
2.851397586952586e-10	2.5678886e-09	5.2674637e-10	0.45127934	-1.2074668e-16	0.55820113
2.87531733686361e-10	2.3703588e-09	5.2674637e-10	0.45127934	-1.2074668e-16	0.55820125
2.902229447034183e-10	2.436202e-09	2.6337318e-10	0.45127934	-1.2074668e-16	0.5582006
2.9261504130785733e-10	2.1399071e-09	4.609031e-10	0.45127934	-1.2074669e-16	0.55820006
2.9500727366794893e-10	2.2386721e-09	4.609031e-10	0.45127934	-1.2074669e-16	0.55819976
2.976982807431077e-10	2.2057505e-09	5.5966803e-10	0.45127934	-1.2074668e-16	0.55820113
3.000905096904738e-10	2.0905246e-09	1.1851794e-09	0.45127934	-1.2074668e-16	0.5582009
3.0278175738063136e-10	2.0246813e-09	7.407371e-10	0.45127934	-1.2074668e-16	0.55820006
3.051738840020599e-10	2.057603e-09	4.938247e-10	0.45127934	-1.2074669e-16	0.55819964
3.075661005423055e-10	2.2057505e-09	3.2921648e-11	0.45127934	-1.2074669e-16	0.55820006
3.10257071395832e-10	2.1728288e-09	-1.975299e-10	0.45127934	-1.2074668e-16	0.558201
3.126492841762715e-10	2.353898e-09	2.6337318e-10	0.45127934	-1.2074668e-16	0.558201
3.1504150049368527e-10	2.1892896e-09	5.925897e-10	0.45127934	-1.2074668e-16	0.55820125
3.1773271880616917e-10	2.1728288e-09	7.571979e-10	0.45127934	-1.2074669e-16	0.5582001
3.2012472951717044e-10	2.279824e-09	5.925897e-10	0.45127934	-1.2074669e-16	0.5582001
3.225167792597865e-10	2.353898e-09	2.6337318e-10	0.45127934	-1.2074668e-16	0.5582009
3.252080915661438e-10	2.1234463e-09	7.901196e-10	0.45127934	-1.2074668e-16	0.55820125
3.2760006610584604e-10	2.3045155e-09	4.2798143e-10	0.45127934	-1.2074668e-16	0.55820125
3.3029135850482096e-10	2.5020452e-09	4.609031e-10	0.45127934	-1.2074669e-16	0.5582001
3.326833655235652e-10	2.3045155e-09	2.6337318e-10	0.45127934	-1.2074668e-16	0.558201
3.35075609759276e-10	2.1399071e-09	0	0.45127934	-1.2074668e-16	0.55820125
3.3776665833430503e-10	2.1069855e-09	3.7859896e-10	0.45127934	-1.2074669e-16	0.558201
3.401589171308726e-10	2.353898e-09	4.938247e-10	0.45127934	-1.2074668e-16	0.5582008
3.4255102379621666e-10	1.917686e-09	-3.2921648e-11	0.45127934	-1.2074669e-16	0.5582007
3.4524213532843096e-10	2.518506e-09	8.065804e-10	0.45127934	-1.2074669e-16	0.55820113
3.476345110156019e-10	2.4279716e-09	-6.5843296e-11	0.45127934	-1.2074669e-16	0.55820143
3.500262542866684e-10	2.1728288e-09	1.975299e-10	0.45127934	-1.2074669e-16	0.55820125
3.5271766834689315e-10	2.4032802e-09	2.3045155e-10	0.45127934	-1.2074668e-16	0.5582005
3.551095444740831e-10	1.8600731e-09	2.9629485e-10	0.45127934	-1.2074668e-16	0.5582005
3.575018711668277e-10	2.057603e-09	2.3045155e-10	0.45127934	-1.2074668e-16	0.5581999
3.601927429121766e-10	2.3127458e-09	0	0.45127934	-1.2074669e-16	0.55820125
3.6258518743797753e-10	1.9917596e-09	7.2427625e-10	0.45127934	-1.2074668e-16	0.55820113
3.652761749648805e-10	2.255133e-09	3.292165e-10	0.45127934	-1.2074668e-16	0.55820036
3.676683434961499e-10	2.2222113e-09	0	0.45127934	-1.2074668e-16	0.5581999
3.700604252384347e-10	2.1069855e-09	4.938247e-10	0.45127934	-1.2074669e-16	0.5581995
3.72751727819268e-10	2.2386721e-09	8.888845e-10	0.45127934	-1.2074668e-16	0.55820125
3.751436608020563e-10	2.3703588e-09	2.7983402e-10	0.45127934	-1.2074669e-16	0.558201
3.7753584093588543e-10	2.2139808e-09	-5.5966803e-10	0.45127934	-1.2074668e-16	0.55820113
3.80226976815318e-10	2.6995752e-09	6.9135464e-10	0.45127934	-1.2074668e-16	0.55819964
3.8261897536175504e-10	2.7901097e-09	1.3168659e-10	0.45127934	-1.2074669e-16	0.55820036
3.8501154669989364e-10	2.9794092e-09	2.3045155e-10	0.45127934	-1.2074669e-16	0.55820036
3.877021738710619e-10	2.7654186e-09	5.925897e-10	0.45127934	-1.2074668e-16	0.55820125
3.900946072521008e-10	2.6995752e-09	3.6213813e-10	0.45127934	-1.2074668e-16	0.55820113
3.927855222296511e-10	2.419741e-09	7.901196e-10	0.45127934	-1.2074669e-16	0.5582005
3.95177684884464e-10	2.2880546e-09	7.2427625e-10	0.45127934	-1.2074669e-16	0.5582007
3.9756973810774337e-10	2.4691236e-09	8.5596286e-10	0.45127934	-1.2074669e-16	0.558201
4.0026090583792576e-10	2.534967e-09	6.58433e-10	0.45127934	-1.2074669e-16	0.55820113
4.026530666257635e-10	2.3703588e-09	3.1275565e-10	0.45127934	-1.2074669e-16	0.558201
4.0504502599216145e-10	2.3374371e-09	2.3045155e-10	0.45127934	-1.2074669e-16	0.5582008
4.077362833189456e-10	2.5678886e-09	4.609031e-10	0.45127934	-1.2074668e-16	0.558201
4.1012833585194933e-10	2.2386721e-09	3.7859896e-10	0.45127934	-1.2074669e-16	0.55820125
4.125205326398964e-10	2.0411421e-09	4.9382474e-11	0.45127934	-1.2074668e-16	0.55820125
4.1521165416717666e-10	2.5678886e-09	4.609031e-10	0.45127934	-1.2074668e-16	0.5582008
4.176038351786022e-10	2.4691236e-09	-6.5843296e-11	0.45127934	-1.2074668e-16	0.55820024
4.2029480471294243e-10	2.633732e-09	2.9629485e-10	0.45127934	-1.2074668e-16	0.5582016
4.226870531424725e-10	2.5431974e-09	2.9629485e-10	0.45127934	-1.2074668e-16	0.5582013
4.2507913307030025e-10	2.4855844e-09	1.3168659e-10	0.45127934	-1.2074668e-16	0.55820125
4.2777023852755486e-10	2.633732e-09	2.6337318e-10	0.45127934	-1.2074668e-16	0.55820036
4.301626039390471e-10	2.7489577e-09	4.609031e-10	0.45127934	-1.2074669e-16	0.5582001
4.325544793355592e-10	2.5843494e-09	4.2798143e-10	0.45127934	-1.2074669e-16	0.55819976
4.352456870716825e-10	2.2880546e-09	-9.876495e-11	0.45127934	-1.2074668e-16	0.55820125
4.3763778550798207e-10	2.2386721e-09	7.7365875e-10	0.45127934	-1.2074668e-16	0.5582009
4.4002984828445774e-10	2.534967e-09	4.938247e-10	0.45127934	-1.2074668e-16	0.55820113
4.427210091085486e-10	2.5678886e-09	9.0534535e-10	0.45127934	-1.2074669e-16	0.55819964
4.451130570463743e-10	2.5020452e-09	5.2674637e-10	0.45127934	-1.2074669e-16	0.55820006
4.475052503233226e-10	2.3045155e-09	4.938247e-10	0.45127934	-1.2074669e-16	0.5582005
4.5019631862925926e-10	2.353898e-09	7.571979e-10	0.45127934	-1.2074668e-16	0.55820125
4.525884453180179e-10	2.7654186e-09	3.950598e-10	0.45127934	-1.2074668e-16	0.55820113
4.5527959807946775e-10	2.4526627e-09	5.2674637e-10	0.45127934	-1.2074668e-16	0.55820006
4.576716467494042e-10	2.8312617e-09	8.888845e-10	0.45127934	-1.2074669e-16	0.55820024
4.6006387741289045e-10	2.378589e-09	8.888845e-10	0.45127934	-1.2074669e-16	0.5582009
4.627548644988092e-10	2.3374371e-09	7.2427625e-10	0.45127934	-1.2074668e-16	0.5582013
4.6514712159193565e-10	2.3374371e-09	8.230412e-10	0.45127934	-1.2074668e-16	0.558201
4.67539115105076e-10	1.958838e-09	4.938247e-10	0.45127934	-1.2074669e-16	0.5582009
4.702303906666154e-10	2.2386721e-09	1.975299e-10	0.45127934	-1.2074668e-16	0.5582009
4.726223379533486e-10	2.6995752e-09	1.3168659e-10	0.45127934	-1.2074669e-16	0.55820113
4.750146814523218e-10	2.5678886e-09	1.975299e-10	0.45127934	-1.2074669e-16	0.5582016
4.777056340838322e-10	2.7654186e-09	6.58433e-10	0.45127934	-1.2074669e-16	0.558201
4.800977814770115e-10	2.5678886e-09	6.4197214e-10	0.45127934	-1.2074669e-16	0.5582007
4.827889987530288e-10	2.3045155e-09	5.2674637e-10	0.45127934	-1.2074669e-16	0.55820125
4.851809689327644e-10	2.4526627e-09	5.925897e-10	0.45127934	-1.2074668e-16	0.5582013
4.875730051372811e-10	2.6501927e-09	3.6213813e-10	0.45127934	-1.2074669e-16	0.5582013
4.902640848257767e-10	2.255133e-09	5.2674637e-10	0.45127934	-1.2074669e-16	0.5582005
4.926562497563521e-10	2.0411421e-09	7.901196e-10	0.45127934	-1.2074668e-16	0.55820024
4.950484498207292e-10	2.1234463e-09	1.6460824e-10	0.45127934	-1.2074669e-16	0.55820006
4.977394785784526e-10	2.4279716e-09	9.876495e-11	0.45127934	-1.2074669e-16	0.5582016
5.001315940409315e-10	2.2222113e-09	3.2921648e-11	0.45127934	-1.2074669e-16	0.55820125
5.025237098167528e-10	2.477354e-09	3.6213813e-10	0.45127937	-1.2074669e-16	0.55820113
5.052147335078734e-10	2.5020452e-09	2.6337318e-10	0.45127934	-1.2074668e-16	0.5581999
5.076069618900533e-10	2.3045155e-09	1.975299e-10	0.45127934	-1.2074668e-16	0.55819976
5.102982351936726e-10	2.4691236e-09	-1.3168659e-10	0.45127934	-1.2074669e-16	0.55820113
5.126899865231136e-10	2.6008102e-09	2.6337318e-10	0.45127934	-1.2074668e-16	0.55820113
5.150822921793093e-10	2.633732e-09	2.4691235e-10	0.45127934	-1.2074668e-16	0.55820113
5.177732079542902e-10	3.0617133e-09	1.6460824e-10	0.45127934	-1.2074668e-16	0.55819964
5.201655106410491e-10	2.8641833e-09	3.6213813e-10	0.45127934	-1.2074669e-16	0.55820024
5.225575510899591e-10	2.7654186e-09	2.6337318e-10	0.45127934	-1.2074668e-16	0.5582008
5.252487196429145e-10	2.633732e-09	2.9629485e-10	0.45127934	-1.2074668e-16	0.55820125
5.276407703382041e-10	2.716036e-09	1.3168659e-10	0.45127934	-1.2074668e-16	0.55820143
5.300326236031823e-10	2.534967e-09	5.925897e-10	0.45127934	-1.2074669e-16	0.55820113
5.327237940587433e-10	2.2715938e-09	9.876495e-11	0.45127934	-1.2074668e-16	0.5582009
5.351157831793631e-10	2.353898e-09	6.255113e-10	0.45127934	-1.2074668e-16	0.55820125
5.375079040636331e-10	2.633732e-09	1.975299e-10	0.45127934	-1.2074668e-16	0.55820143
5.401989115885822e-10	2.3703588e-09	5.2674637e-10	0.45127934	-1.2074669e-16	0.55820113
5.425909011740646e-10	2.1892896e-09	1.975299e-10	0.45127934	-1.2074669e-16	0.5582009
5.452819515955835e-10	2.3292066e-09	1.6460824e-10	0.45127934	-1.2074668e-16	0.55820113
5.47674009719815e-10	2.2715938e-09	9.218062e-10	0.45127934	-1.2074668e-16	0.5582013
5.50065964688128e-10	2.353898e-09	1.975299e-10	0.45127934	-1.2074668e-16	0.55820143
5.527569196532945e-10	2.3374371e-09	5.5966803e-10	0.45127934	-1.2074669e-16	0.5582008
5.551490419751721e-10	2.6995752e-09	6.255113e-10	0.45127937	-1.2074669e-16	0.55820036
5.575409432611916e-10	2.6995752e-09	5.2674637e-10	0.45127934	-1.2074669e-16	0.55820024
5.602321525092946e-10	2.6501927e-09	9.218062e-10	0.45127934	-1.2074668e-16	0.55820143
5.626241094261826e-10	2.4691236e-09	3.6213813e-10	0.45127934	-1.2074668e-16	0.5582013
5.650159970646236e-10	2.0082205e-09	3.950598e-10	0.45127934	-1.2074668e-16	0.558201
5.677070576500766e-10	2.3374371e-09	4.938247e-10	0.45127934	-1.2074669e-16	0.55820024
5.700991684568384e-10	2.2715938e-09	2.3045155e-10	0.45127934	-1.2074669e-16	0.55819976
5.727902270891531e-10	2.732497e-09	-3.292165e-10	0.45127934	-1.2074668e-16	0.5582013
5.75182166130346e-10	2.8806442e-09	4.938247e-10	0.45127934	-1.2074668e-16	0.55820113
5.775742368109933e-10	2.633732e-09	7.571979e-10	0.45127934	-1.2074668e-16	0.55820113
5.802650581626351e-10	2.3374371e-09	1.1193361e-09	0.45127934	-1.2074668e-16	0.55820006
5.826574026488719e-10	2.2386721e-09	8.230412e-10	0.45127934	-1.2074669e-16	0.55820006
5.850492210222905e-10	2.1069855e-09	8.5596286e-10	0.45127934	-1.2074669e-16	0.5582006
5.877403989548008e-10	2.1728288e-09	9.0534535e-10	0.45127934	-1.2074668e-16	0.55820125
5.901321831758155e-10	2.1234463e-09	3.950598e-10	0.45127934	-1.2074668e-16	0.5582013
5.925243460681316e-10	2.3868196e-09	1.3168659e-10	0.45127934	-1.2074668e-16	0.55820125
5.952153163785657e-10	2.4691236e-09	1.975299e-10	0.45127934	-1.2074669e-16	0.5582006
5.976074056360092e-10	2.436202e-09	7.2427625e-10	0.45127934	-1.2074669e-16	0.5582007
6.002983180548309e-10	2.4691236e-09	6.255113e-10	0.45127934	-1.2074668e-16	0.55820125
6.026905129085888e-10	2.6501927e-09	2.9629485e-10	0.45127934	-1.2074669e-16	0.55820113
6.050824003611372e-10	2.4855844e-09	2.9629485e-10	0.45127934	-1.2074668e-16	0.5582009
6.07773700449637e-10	2.1399071e-09	8.230412e-10	0.45127934	-1.2074669e-16	0.55820125
6.1016530150357e-10	2.0905246e-09	4.609031e-10	0.45127934	-1.2074669e-16	0.55820143
6.125576929882677e-10	2.4691236e-09	5.432072e-10	0.45127934	-1.2074669e-16	0.5582016
6.15248378040801e-10	2.7654186e-09	4.609031e-10	0.45127934	-1.2074669e-16	0.5582009
6.176406188728624e-10	2.5514277e-09	2.6337318e-10	0.45127934	-1.2074669e-16	0.5582006
6.20032588289572e-10	2.3045155e-09	-6.5843296e-11	0.45127934	-1.2074668e-16	0.5582005
6.22723681564699e-10	1.876534e-09	1.975299e-10	0.45127934	-1.2074669e-16	0.5582016
6.251155231039845e-10	2.0246813e-09	1.975299e-10	0.45127934	-1.2074669e-16	0.5582016
6.275076341577464e-10	2.2304416e-09	-5.925897e-10	0.45127934	-1.2074668e-16	0.55820113
6.30198558380837e-10	2.4526627e-09	1.3168659e-10	0.45127934	-1.2074668e-16	0.55820024
6.325907219605718e-10	2.3703588e-09	6.5843296e-11	0.45127934	-1.2074668e-16	0.55820006
6.352816123386725e-10	2.255133e-09	7.571979e-10	0.45127934	-1.2074669e-16	0.55820143
6.376738033757942e-10	2.1069855e-09	4.773639e-10	0.45127934	-1.2074669e-16	0.55820113
6.400656277070425e-10	2.0740638e-09	6.5843296e-11	0.45127934	-1.2074668e-16	0.558201
6.427569241773069e-10	2.3045155e-09	-6.5843296e-11	0.45127934	-1.2074668e-16	0.5581999
6.451485995418279e-10	2.3703588e-09	-1.975299e-10	0.45127934	-1.2074668e-16	0.55819964
6.475408662709148e-10	2.3045155e-09	1.975299e-10	0.45127934	-1.2074668e-16	0.55820024
6.502315570519976e-10	2.3045155e-09	-2.6337318e-10	0.45127934	-1.2074668e-16	0.55820113
6.526239289097106e-10	2.493815e-09	3.2921648e-11	0.45127934	-1.2074669e-16	0.5582013
6.550157870379069e-10	2.353898e-09	9.218062e-10	0.45127934	-1.2074669e-16	0.5582013
6.577069135769914e-10	2.3045155e-09	6.9135464e-10	0.45127934	-1.2074668e-16	0.55820024
6.600989452631013e-10	2.2386721e-09	7.2427625e-10	0.45127934	-1.2074669e-16	0.5582007
6.62789892038365e-10	2.156368e-09	6.255113e-10	0.45127934	-1.2074669e-16	0.558201
6.651818091478614e-10	2.3209763e-09	6.58433e-10	0.45127934	-1.2074669e-16	0.55820125
6.675740005006437e-10	2.39505e-09	3.292165e-10	0.45127934	-1.2074669e-16	0.55820113
6.702647749017763e-10	2.5843494e-09	4.609031e-10	0.45127934	-1.2074668e-16	0.5582009
6.726569717547822e-10	2.3703588e-09	7.2427625e-10	0.45127934	-1.2074668e-16	0.55820113
6.750486658320971e-10	2.3374371e-09	4.938247e-10	0.45127934	-1.2074668e-16	0.5582013
6.77739866918518e-10	2.419741e-09	3.292165e-10	0.45127934	-1.2074668e-16	0.5582009
6.801317825427807e-10	2.3209763e-09	0	0.45127934	-1.2074668e-16	0.5582008
6.825239857877583e-10	2.2057505e-09	5.2674637e-10	0.45127934	-1.2074669e-16	0.55820036
6.852148887609392e-10	2.353898e-09	7.901196e-10	0.45127934	-1.2074668e-16	0.5582013
6.876068553122795e-10	2.7242664e-09	6.58433e-10	0.45127934	-1.2074668e-16	0.55820143
6.902979273235825e-10	2.3703588e-09	3.292165e-10	0.45127934	-1.2074669e-16	0.5582005
6.926898540482022e-10	2.3374371e-09	0	0.45127934	-1.2074669e-16	0.55820024
6.9508188433606e-10	2.4691236e-09	9.876495e-11	0.45127934	-1.2074669e-16	0.55820024
6.977729573981062e-10	2.3045155e-09	-2.3045155e-10	0.45127934	-1.2074668e-16	0.5582016
7.001649966529718e-10	2.6995752e-09	6.9135464e-10	0.45127934	-1.2074668e-16	0.55820125
7.025568715057689e-10	2.5596583e-09	9.876495e-11	0.45127934	-1.2074668e-16	0.558201
7.052479303332384e-10	2.3045155e-09	-1.4814742e-10	0.45127934	-1.2074669e-16	0.55820024
7.076397973451396e-10	2.633732e-09	-2.3045155e-10	0.45127934	-1.2074668e-16	0.5581999
7.100319890930826e-10	2.6913447e-09	-2.6337318e-10	0.45127934	-1.2074668e-16	0.5582001
7.127229173855053e-10	2.6995752e-09	-6.5843296e-11	0.45127934	-1.2074668e-16	0.558201
7.151148608556599e-10	2.8312617e-09	5.5966803e-10	0.45127934	-1.2074668e-16	0.5582009
7.175069371017405e-10	2.6501927e-09	1.975299e-10	0.45127934	-1.2074668e-16	0.55820125
7.201980654658286e-10	2.3703588e-09	3.292165e-10	0.45127934	-1.2074669e-16	0.5582001
7.225899768282478e-10	2.4608933e-09	3.292165e-10	0.45127934	-1.2074669e-16	0.5582006
7.252810659874343e-10	2.5020452e-09	4.2798143e-10	0.45127934	-1.2074668e-16	0.55820125
7.276731217185966e-10	2.4691236e-09	4.938247e-10	0.45127934	-1.2074668e-16	0.5582013
7.300650549640236e-10	2.436202e-09	5.925897e-10	0.45127934	-1.2074668e-16	0.55820125
7.327560935664029e-10	2.5678886e-09	1.975299e-10	0.45127934	-1.2074669e-16	0.5582006
7.351480792556689e-10	2.3703588e-09	1.975299e-10	0.45127934	-1.2074669e-16	0.558201
7.375401161975327e-10	2.3374371e-09	5.1028554e-10	0.45127934	-1.2074668e-16	0.5582013
7.402312063181778e-10	2.296285e-09	1.6460824e-11	0.45127934	-1.2074668e-16	0.55820113
7.426232603349753e-10	2.4526627e-09	2.3045155e-10	0.45127934	-1.2074668e-16	0.558201
7.450150297081222e-10	2.633732e-09	4.4444226e-10	0.45127934	-1.2074668e-16	0.5582005
7.477063693704698e-10	2.3703588e-09	7.571979e-10	0.45127934	-1.2074669e-16	0.55820143
7.500981309656528e-10	2.1481377e-09	5.2674637e-10	0.45127934	-1.2074669e-16	0.5582013
7.527892175718355e-10	2.1892896e-09	7.571979e-10	0.45127934	-1.2074668e-16	0.5582008
7.551811548845908e-10	2.436202e-09	4.938247e-10	0.45127934	-1.2074669e-16	0.5582005
7.575732125182636e-10	2.1069855e-09	7.7365875e-10	0.45127934	-1.2074668e-16	0.55820036
7.602641182369539e-10	2.0905246e-09	7.571979e-10	0.45127934	-1.2074669e-16	0.55820143
7.626561808691002e-10	2.2222113e-09	2.6337318e-10	0.45127934	-1.2074668e-16	0.5582013
7.650482472652459e-10	2.2880546e-09	-9.876495e-11	0.45127934	-1.2074669e-16	0.5582013
7.677392679925421e-10	2.3045155e-09	2.3045155e-10	0.45127934	-1.2074668e-16	0.55820036
7.701312157208892e-10	2.617271e-09	3.6213813e-10	0.45127934	-1.2074669e-16	0.55820006
7.72523052578883e-10	2.255133e-09	-6.5843296e-11	0.45127934	-1.2074668e-16	0.55820006
7.752140877356714e-10	2.633732e-09	-1.975299e-10	0.45127934	-1.2074668e-16	0.5582009
7.776062122415518e-10	2.4691236e-09	3.6213813e-10	0.45127934	-1.2074668e-16	0.558201
7.802971875755173e-10	2.732497e-09	3.6213813e-10	0.45127934	-1.2074668e-16	0.55820024
7.826892806389037e-10	2.518506e-09	3.292165e-10	0.45127934	-1.2074668e-16	0.55819976
7.850813186565745e-10	2.2386721e-09	4.2798143e-10	0.45127934	-1.2074668e-16	0.5582005
7.877724394640349e-10	2.5020452e-09	1.975299e-10	0.45127934	-1.2074669e-16	0.55820113
7.901642699346539e-10	2.4855844e-09	3.4567732e-10	0.45127934	-1.2074669e-16	0.55820125
7.925563451843803e-10	2.534967e-09	6.255113e-10	0.45127934	-1.2074668e-16	0.55820113
7.952472461798134e-10	2.1728288e-09	-6.9135464e-10	0.45127934	-1.2074668e-16	0.55820024
7.976392474716444e-10	2.3703588e-09	3.950598e-10	0.45127934	-1.2074668e-16	0.558201
8.000312472352185e-10	2.4691236e-09	6.58433e-10	0.45127934	-1.2074668e-16	0.558201
8.027223046803967e-10	2.534967e-09	3.6213813e-10	0.45127934	-1.2074669e-16	0.558201
8.051144121728666e-10	2.353898e-09	3.6213813e-10	0.45127934	-1.2074669e-16	0.558201
8.075064260653046e-10	2.2057505e-09	4.938247e-10	0.45127934	-1.2074669e-16	0.5582006
8.101973757983852e-10	2.2222113e-09	6.9135464e-10	0.45127934	-1.2074668e-16	0.5582013
8.125894100536238e-10	2.5678886e-09	5.5966803e-10	0.45127934	-1.2074668e-16	0.5582016
8.15280580020862e-10	2.518506e-09	2.9629485e-10	0.45127934	-1.2074668e-16	0.5582007
8.176723644475465e-10	2.1728288e-09	5.925897e-10	0.45127934	-1.2074669e-16	0.5582008
8.200645749241398e-10	2.436202e-09	5.5966803e-10	0.45127934	-1.2074669e-16	0.5582001
8.227554641196407e-10	1.9752988e-09	7.571979e-10	0.45127934	-1.2074668e-16	0.55820143
8.251474076676228e-10	2.3209763e-09	2.9629485e-10	0.45127934	-1.2074668e-16	0.55820143
8.275395946322805e-10	2.534967e-09	4.9382474e-11	0.45127934	-1.2074668e-16	0.5582013
8.302303197315967e-10	2.3292066e-09	1.6460824e-10	0.45127934	-1.2074669e-16	0.55820024
8.326225162652622e-10	2.4691236e-09	1.3168659e-10	0.45127934	-1.2074669e-16	0.55820024
8.350144228853708e-10	2.3374371e-09	-2.9629485e-10	0.45127934	-1.2074669e-16	0.55820006
8.377055532584876e-10	2.5843494e-09	-6.5843296e-11	0.4512793	-1.2074668e-16	0.5582013
8.400975998706429e-10	2.3045155e-09	3.950598e-10	0.45127934	-1.2074668e-16	0.55820113
8.427885662379308e-10	2.3209763e-09	2.9629485e-10	0.45127934	-1.2074668e-16	0.55820036
8.451805650380133e-10	1.876534e-09	4.4444226e-10	0.45127934	-1.2074669e-16	0.5582001
8.475723893746468e-10	2.1728288e-09	-8.230412e-11	0.45127934	-1.2074669e-16	0.55819976
8.502636177844895e-10	2.0082205e-09	4.2798143e-10	0.45127934	-1.2074668e-16	0.55820113
8.526554321647861e-10	2.156368e-09	3.292165e-10	0.45127934	-1.2074668e-16	0.558201
8.550475355787544e-10	2.3374371e-09	2.3045155e-10	0.45127934	-1.2074668e-16	0.55820125
8.577384869282333e-10	2.4691236e-09	3.292165e-10	0.45127934	-1.2074669e-16	0.55820024
8.60130485003047e-10	2.4115108e-09	7.2427625e-10	0.45127934	-1.2074669e-16	0.5582006
8.625227201016126e-10	2.3045155e-09	3.950598e-10	0.45127934	-1.2074668e-16	0.5582009
8.652135339653989e-10	2.0740638e-09	4.115206e-10	0.45127934	-1.2074668e-16	0.5582013
8.676056594997606e-10	2.0905246e-09	3.292165e-10	0.45127934	-1.2074668e-16	0.558201
8.702965427544811e-10	2.3127458e-09	4.938247e-10	0.45127934	-1.2074669e-16	0.5582008
8.726886219272214e-10	2.4032802e-09	4.609031e-10	0.45127934	-1.2074669e-16	0.558201