# t (s)	mx ()	my ()	mz ()	E_total (J)	MaxAngle (rad)
0	8.1481083e-10	8.230412e-10	0.9795362	-2.0725775e-17	0.26627314
2.5315528656152253e-12	6.9135464e-10	1.2674835e-09	0.97044367	-2.0642347e-17	0.2479031
5.003693744973603e-12	1.8106906e-10	1.5473175e-09	0.96696234	-2.0509409e-17	0.23813911
7.52357586792317e-12	-3.2921648e-11	1.3744789e-09	0.96819896	-2.0416475e-17	0.23573259
1.0042712477693059e-11	-7.2427625e-10	1.876534e-09	0.9697582	-2.0400183e-17	0.23386565
1.2511358374219347e-11	-2.5678886e-09	1.2510226e-09	0.96814454	-2.0396472e-17	0.23545067
1.5028068417874215e-11	-2.8312617e-09	-2.1728288e-09	0.96379745	-2.0308778e-17	0.23611203
1.7543805466285418e-11	1.3827093e-09	-4.7407176e-09	0.9608782	-2.0084015e-17	0.24132316
2.000919099580024e-11	7.539057e-09	-9.218062e-10	0.9642665	-1.9763138e-17	0.25330904
2.252418048524611e-11	7.860043e-09	8.230412e-09	0.9735717	-1.9457134e-17	0.32017478
2.503997246768133e-11	-3.275704e-09	1.438676e-08	0.9781085	-1.9260207e-17	0.5835374
2.7506983306756506e-11	-1.7646004e-08	6.913546e-09	0.96476734	-1.9079389e-17	0.3408108
3.002381263493118e-11	-2.1530758e-08	-1.3695406e-08	0.9273822	-1.873467e-17	0.23213246
3.254028687314062e-11	5.2674637e-10	-3.6477186e-08	0.8714032	-1.7998395e-17	0.20217212
3.500540357816163e-11	4.727549e-08	-3.397514e-08	0.8066669	-1.6791722e-17	0.17622744
3.7519712361575824e-11	8.3489304e-08	1.8469045e-08	0.7444708	-1.501768e-17	0.2371367
4.003511598695085e-11	4.9810453e-08	1.0534927e-07	0.6838584	-1.2636689e-17	0.26304176
4.2505968791343674e-11	-5.198328e-08	1.5170296e-07	0.5811848	-9.752585e-18	0.2219166
4.5033693439933506e-11	-1.7013907e-07	1.3148906e-07	0.39979532	-6.13685e-18	0.1789841
4.75179549073481e-11	-2.5125803e-07	8.928351e-08	0.14379492	-2.9960281e-18	0.14904328
5.0007710374450795e-11	-2.4704406e-07	6.123427e-08	-0.14740059	-2.4607062e-18	0.16604683
5.2538770119907366e-11	-1.6250125e-07	6.847703e-09	-0.3975647	-3.9616496e-18	0.22426581
5.501899116908383e-11	-7.479799e-08	-4.134959e-08	-0.5789732	-6.3651354e-18	0.22389404
5.7545778466716967e-11	-4.134959e-08	-6.887209e-08	-0.7167007	-8.772625e-18	0.18730389
6.002202984461592e-11	-7.2164255e-08	-4.6221995e-08	-0.8450374	-1.1573744e-17	0.14261784
6.254774152653224e-11	-9.13905e-08	1.856781e-08	-0.9378708	-1.470029e-17	0.087078616
6.50237919878343e-11	-4.1744652e-08	4.7407173e-08	-0.97227377	-1.6439093e-17	0.098539636
6.754912143273273e-11	-2.3374371e-09	2.7654185e-08	-0.98317236	-1.710757e-17	0.09390903
7.002454965666324e-11	7.102846e-09	8.691315e-09	-0.989368	-1.7318429e-17	0.090429455
7.254915305732291e-11	6.18927e-09	7.2427625e-10	-0.9931909	-1.7362162e-17	0.09105565
7.502404886181351e-11	3.3415473e-09	-1.9094557e-09	-0.9946115	-1.7354635e-17	0.09195385
7.754830490071001e-11	8.888845e-10	-2.2386721e-09	-0.994813	-1.7343653e-17	0.092352845
8.002293678921826e-11	-1.8106906e-10	-1.4320917e-09	-0.99466336	-1.7339109e-17	0.09241552
8.254696511655501e-11	-5.925897e-10	-7.2427625e-10	-0.99452114	-1.7338546e-17	0.09238386
8.502143091788939e-11	-2.9629485e-10	-6.58433e-10	-0.99445754	-1.733921e-17	0.092352204
8.75453299805174e-11	0	-1.0205711e-09	-0.9944428	-1.7339822e-17	0.092336036
9.001966746483354e-11	1.3168659e-10	-7.2427625e-10	-0.99444675	-1.7340114e-17	0.09233281
9.254345842756715e-11	-9.876495e-11	-2.6337318e-10	-0.99445295	-1.7340189e-17	0.0923341
9.501772870421055e-11	9.711887e-10	4.609031e-10	-0.9944566	-1.734018e-17	0.0923341
9.754143137466046e-11	3.1275567e-09	-3.292165e-10	-0.9944578	-1.7340157e-17	0.0923341
1.0001562739629001e-10	1.8929949e-09	-1.5802392e-09	-0.9944578	-1.7340143e-17	0.09233539
1.0253926556719127e-10	-1.4485525e-09	-2.6995752e-09	-0.99445766	-1.7340134e-17	0.09233475
1.0501340542809301e-10	-3.6378422e-09	-2.0411421e-09	-0.9944576	-1.7340138e-17	0.09233539
1.0753699864156595e-10	-3.1275567e-09	-3.292165e-10	-0.99445736	-1.7340138e-17	0.09233539
1.1001107461548603e-10	-1.4814742e-09	6.58433e-10	-0.99445736	-1.7340136e-17	0.09233475
1.1253461615469803e-10	-5.2674637e-10	1.6460824e-10	-0.99445736	-1.7340136e-17	0.09233475
1.150086485229398e-10	1.6460824e-10	-6.5843296e-11	-0.99445736	-1.7340136e-17	0.0923341
1.1753213532765713e-10	9.876495e-11	-5.2674637e-10	-0.99445736	-1.7340136e-17	0.09233539
1.2000613571157913e-10	9.876495e-11	-7.901196e-10	-0.99445736	-1.7340136e-17	0.09233539
1.2252959085175483e-10	-1.6460824e-10	-6.58433e-10	-0.99445736	-1.7340136e-17	0.09233539
1.2500353777221697e-10	-2.1399071e-10	-6.58433e-10	-0.99445736	-1.7340138e-17	0.09233475
1.2752695959469595e-10	-4.609031e-10	-3.950598e-10	-0.99445736	-1.7340138e-17	0.09233475
1.3000089233504776e-10	-4.115206e-10	-3.950598e-10	-0.99445736	-1.7340136e-17	0.09233539
1.3252428125197132e-10	-6.5843296e-11	-4.609031e-10	-0.99445736	-1.7340136e-17	0.09233539
1.350476659309544e-10	-1.1522577e-10	-7.2427625e-10	-0.99445736	-1.7340138e-17	0.09233475
1.375215685464053e-10	-1.8106906e-10	-4.609031e-10	-0.99445736	-1.7340136e-17	0.09233475
1.4004493276828643e-10	-1.8106906e-10	-6.58433e-10	-0.99445736	-1.7340136e-17	0.09233475
1.425188196151321e-10	-4.2798143e-10	-9.876494e-10	-0.99445736	-1.7340136e-17	0.09233539
1.4504217148499713e-10	-1.3168659e-10	-6.58433e-10	-0.99445736	-1.7340138e-17	0.09233475
1.4751606260313927e-10	6.5843296e-11	-5.925897e-10	-0.99445736	-1.7340138e-17	0.09233539
1.5003942207131542e-10	4.9382474e-11	-7.2427625e-10	-0.99445736	-1.7340138e-17	0.09233539
1.52513304818991e-10	-3.6213813e-10	-6.58433e-10	-0.99445736	-1.7340136e-17	0.09233475
1.550366381017699e-10	-1.1522577e-10	-7.901196e-10	-0.99445736	-1.7340138e-17	0.09233475
1.5751051152882905e-10	-9.876495e-11	-5.2674637e-10	-0.99445736	-1.7340136e-17	0.09233539
1.600338382715359e-10	-3.2921648e-11	-7.901196e-10	-0.99445736	-1.7340138e-17	0.09233539
1.625077091237894e-10	-3.2921648e-11	-6.255113e-10	-0.99445736	-1.7340138e-17	0.09233475
1.650310556532764e-10	-2.9629485e-10	-6.255113e-10	-0.99445736	-1.7340138e-17	0.092336036
1.6750492175218504e-10	-1.1522577e-10	-4.609031e-10	-0.99445736	-1.7340138e-17	0.092336036
1.7002825054643475e-10	-2.1399071e-10	-6.58433e-10	-0.99445736	-1.7340138e-17	0.0923341
1.7250212175370381e-10	-2.9629485e-10	-6.9135464e-10	-0.99445736	-1.7340138e-17	0.092336036
1.7502544784172462e-10	-4.609031e-10	-5.2674637e-10	-0.99445736	-1.7340136e-17	0.09233539
1.7754878055849086e-10	-4.4444226e-10	-4.609031e-10	-0.99445736	-1.734014e-17	0.09233539
1.800226289301379e-10	-1.6460824e-10	-7.2427625e-10	-0.99445736	-1.7340138e-17	0.0923341
1.825459563747384e-10	1.6460824e-11	-5.2674637e-10	-0.99445736	-1.7340136e-17	0.09233475
1.850198243604915e-10	-2.7983402e-10	-9.218062e-10	-0.99445736	-1.7340138e-17	0.09233475
1.8754315916831383e-10	-6.58433e-10	-4.938247e-10	-0.99445736	-1.734014e-17	0.09233475
1.9001701032054776e-10	-3.7859896e-10	-5.2674637e-10	-0.99445736	-1.7340136e-17	0.09233475
1.9254034007186515e-10	-1.3168659e-10	-3.950598e-10	-0.99445736	-1.7340136e-17	0.09233539
1.9501418847671566e-10	-2.6337318e-10	-4.609031e-10	-0.99445736	-1.7340138e-17	0.09233539
1.9753750776778456e-10	-2.3045155e-10	-6.748938e-10	-0.99445736	-1.7340138e-17	0.09233539
2.0001136374004304e-10	-3.950598e-10	-4.938247e-10	-0.99445736	-1.7340136e-17	0.09233539
2.025346915805992e-10	9.876495e-11	-6.58433e-10	-0.99445736	-1.7340138e-17	0.09233475
2.050085447944089e-10	-1.1522577e-10	-4.609031e-10	-0.99445736	-1.7340138e-17	0.09233539
2.075318724058404e-10	6.5843296e-11	-3.950598e-10	-0.99445736	-1.7340138e-17	0.09233475
2.1000572091954892e-10	3.2921648e-11	-4.2798143e-10	-0.99445736	-1.7340138e-17	0.09233539
2.12529041280147e-10	9.876495e-11	-1.975299e-10	-0.99445736	-1.7340138e-17	0.09233539
2.150028911840272e-10	2.7983402e-10	-5.2674637e-10	-0.99445736	-1.7340136e-17	0.09233539
2.1752622414126297e-10	8.230412e-11	-5.2674637e-10	-0.99445736	-1.7340136e-17	0.09233475
2.2000006752295977e-10	-1.3168659e-10	-5.925897e-10	-0.99445736	-1.7340138e-17	0.09233475
2.225233964647088e-10	-5.7612887e-10	-6.58433e-10	-0.99445736	-1.7340138e-17	0.09233539
2.2504671643707782e-10	-3.950598e-10	-6.58433e-10	-0.99445736	-1.7340138e-17	0.09233539
2.2752056799299448e-10	-6.255113e-10	-5.2674637e-10	-0.99445736	-1.7340136e-17	0.092336036
2.3004389405044905e-10	-3.292165e-10	-5.2674637e-10	-0.99445736	-1.7340138e-17	0.09233475
2.3251773966868884e-10	-3.6213813e-10	-3.292165e-10	-0.99445736	-1.734014e-17	0.09233475
2.3504105969322804e-10	-3.950598e-10	-5.2674637e-10	-0.99445736	-1.7340138e-17	0.092336036
2.3751489550898706e-10	-9.876495e-11	-6.58433e-10	-0.99445736	-1.734014e-17	0.09233539
2.4003821872902583e-10	-6.5843296e-11	-5.2674637e-10	-0.99445736	-1.7340136e-17	0.09233475
2.425120659539046e-10	-3.1275565e-10	-1.975299e-10	-0.99445736	-1.7340138e-17	0.09233475
2.450353895498647e-10	6.5843296e-11	-2.3045155e-10	-0.99445736	-1.734014e-17	0.09233475
2.475092282438691e-10	-8.230412e-11	-5.2674637e-10	-0.99445736	-1.7340136e-17	0.09233475
2.500325429180706e-10	-2.6337318e-10	-7.901196e-10	-0.99445736	-1.7340138e-17	0.09233475
2.52506387045615e-10	-3.1275565e-10	-7.2427625e-10	-0.99445736	-1.734014e-17	0.0923341
2.550297053169064e-10	-2.9629485e-10	-7.7365875e-10	-0.99445736	-1.734014e-17	0.09233475
2.5750354315177717e-10	-1.6460824e-10	-5.1028554e-10	-0.99445736	-1.7340136e-17	0.09233475
2.6002685553437267e-10	-1.6460824e-10	-5.925897e-10	-0.99445736	-1.7340136e-17	0.09233475
2.625007052350927e-10	-4.9382474e-11	-5.925897e-10	-0.99445736	-1.7340138e-17	0.09233475
2.6502402317055935e-10	-8.230412e-11	-5.2674637e-10	-0.99445736	-1.7340136e-17	0.092336036
2.675473383098703e-10	-1.8106906e-10	-7.901196e-10	-0.99445736	-1.7340136e-17	0.09233475
2.7002117975490406e-10	-2.6337318e-10	-3.950598e-10	-0.99445736	-1.7340138e-17	0.09233539
2.725444887791024e-10	-2.1399071e-10	-5.2674637e-10	-0.99445736	-1.7340138e-17	0.09233475
2.750183269211794e-10	-3.4567732e-10	-4.2798143e-10	-0.99445736	-1.7340138e-17	0.09233539
2.7754164270465005e-10	-2.6337318e-10	-4.938247e-10	-0.99445736	-1.7340136e-17	0.09233539
2.800154854273486e-10	-2.9629485e-10	-5.2674637e-10	-0.99445736	-1.734014e-17	0.09233539
2.825387894050125e-10	-2.7983402e-10	-4.609031e-10	-0.99445736	-1.7340138e-17	0.0923341
2.8501262300392156e-10	-1.975299e-10	-3.950598e-10	-0.99445736	-1.7340136e-17	0.09233539
2.8753595295404986e-10	1.1522577e-10	-2.3045155e-10	-0.99445736	-1.7340136e-17	0.09233475
2.900097884332596e-10	9.876495e-11	-6.58433e-10	-0.99445736	-1.7340136e-17	0.09233539
2.9253310329643683e-10	-6.5843296e-11	-5.2674637e-10	-0.99445736	-1.7340138e-17	0.09233539
2.9500692625935115e-10	-3.2921648e-11	-6.090505e-10	-0.99445736	-1.7340138e-17	0.09233475
2.975302418132056e-10	3.2921648e-11	-5.2674637e-10	-0.99445736	-1.7340138e-17	0.09233539
3.000040771540928e-10	-6.5843296e-11	-5.1028554e-10	-0.99445736	-1.7340136e-17	0.09233539
3.0252738710427895e-10	9.876495e-11	-9.547279e-10	-0.99445736	-1.7340138e-17	0.09233475
3.0500123260510456e-10	-1.6460824e-10	-4.609031e-10	-0.99445736	-1.7340136e-17	0.09233475
3.0752453914522836e-10	-2.9629485e-10	-3.950598e-10	-0.99445736	-1.734014e-17	0.09233539
3.100478542237922e-10	-4.115206e-10	-3.950598e-10	-0.99445736	-1.7340136e-17	0.09233475
3.1252167988969573e-10	-4.609031e-10	-5.925897e-10	-0.99445736	-1.7340138e-17	0.092336036
3.150449894570984e-10	-3.292165e-10	-7.2427625e-10	-0.99445736	-1.7340138e-17	0.092336036
3.175188120924174e-10	-6.5843296e-11	-2.6337318e-10	-0.99445736	-1.7340136e-17	0.09233475
3.200421216223423e-10	1.3168659e-10	-6.4197214e-10	-0.99445736	-1.7340138e-17	0.09233539
3.22515953618717e-10	-1.975299e-10	-4.609031e-10	-0.99445736	-1.734014e-17	0.092336036
3.250392717419399e-10	-2.6337318e-10	-5.2674637e-10	-0.99445736	-1.7340138e-17	0.092336036
3.27513098774714e-10	-4.609031e-10	-8.5596286e-10	-0.99445736	-1.7340136e-17	0.09233539
3.3003640907937606e-10	-6.58433e-10	-6.58433e-10	-0.99445736	-1.7340138e-17	0.09233539
3.325102498787302e-10	-3.6213813e-10	-3.950598e-10	-0.99445736	-1.7340138e-17	0.09233539
3.350335574298411e-10	-3.292165e-10	-3.292165e-10	-0.99445736	-1.7340138e-17	0.09233539
3.3750738915985314e-10	-1.6460824e-11	-4.609031e-10	-0.99445736	-1.7340136e-17	0.09233475
3.400306969811913e-10	1.1522577e-10	-1.975299e-10	-0.99445736	-1.7340138e-17	0.09233475
3.42504537186441e-10	1.4814742e-10	-5.2674637e-10	-0.99445736	-1.7340138e-17	0.09233475
3.450278452495138e-10	0	-5.2674637e-10	-0.99445736	-1.734014e-17	0.09233475
3.4750168235020254e-10	-1.8106906e-10	-4.609031e-10	-0.99445736	-1.7340138e-17	0.09233475
3.5002498658672936e-10	-9.876495e-11	-5.925897e-10	-0.99445736	-1.7340136e-17	0.09233539
3.5254829777427867e-10	-8.230412e-11	-4.609031e-10	-0.99445736	-1.7340136e-17	0.09233475
3.5502213217189733e-10	-1.6460824e-11	-5.5966803e-10	-0.99445736	-1.7340138e-17	0.09233475
3.575454328061986e-10	-9.876495e-11	-9.876494e-10	-0.99445736	-1.7340136e-17	0.09233475
3.6001927401572475e-10	-3.7859896e-10	-8.5596286e-10	-0.99445736	-1.7340136e-17	0.09233475
3.6254257613365823e-10	-6.58433e-10	-6.58433e-10	-0.99445736	-1.7340136e-17	0.09233475
3.6501641433122784e-10	-3.7859896e-10	-3.292165e-10	-0.99445736	-1.7340138e-17	0.09233475
3.675397256135004e-10	-1.1522577e-10	-6.58433e-10	-0.99445736	-1.7340136e-17	0.09233475
3.70013551163588e-10	-2.6337318e-10	-7.901196e-10	-0.99445736	-1.7340136e-17	0.09233539
3.72536868244609e-10	-1.6460824e-10	-5.2674637e-10	-0.99445736	-1.7340136e-17	0.09233475
3.7501069908981424e-10	-1.8106906e-10	-7.2427625e-10	-0.99445736	-1.7340138e-17	0.09233475
3.7753400629703227e-10	-1.4814742e-10	-6.58433e-10	-0.99445736	-1.734014e-17	0.09233475
3.8000783911223534e-10	-9.876495e-11	-1.0205711e-09	-0.99445736	-1.7340136e-17	0.09233539
3.8253114548657277e-10	-9.876495e-11	-8.5596286e-10	-0.99445736	-1.7340136e-17	0.09233539
3.850049845988535e-10	-2.3045155e-10	-5.925897e-10	-0.99445736	-1.7340136e-17	0.09233539
3.8752829546663146e-10	-2.9629485e-10	-5.2674637e-10	-0.99445736	-1.734014e-17	0.09233539
3.9000212843040656e-10	-4.773639e-10	-7.2427625e-10	-0.99445736	-1.7340138e-17	0.09233539
3.925254356431654e-10	-6.5843296e-11	-6.58433e-10	-0.99445736	-1.7340138e-17	0.09233475
3.950487418280274e-10	-2.3045155e-10	-7.078154e-10	-0.99445736	-1.7340136e-17	0.09233539
3.975225757092964e-10	-2.7983402e-10	-9.218062e-10	-0.99445736	-1.7340136e-17	0.09233539
4.0004588604351145e-10	-5.925897e-10	-6.58433e-10	-0.99445736	-1.7340138e-17	0.09233539
4.0251971374913044e-10	-3.950598e-10	-5.925897e-10	-0.99445736	-1.7340136e-17	0.09233539
4.050430186601094e-10	-2.6337318e-10	-5.2674637e-10	-0.99445736	-1.734014e-17	0.09233475
4.0751684433151855e-10	-4.9382474e-11	-5.2674637e-10	-0.99445736	-1.7340138e-17	0.09233539
4.1004014640039004e-10	1.6460824e-10	-7.2427625e-10	-0.99445736	-1.7340136e-17	0.09233475
4.125139917585568e-10	-4.2798143e-10	-8.5596286e-10	-0.99445736	-1.7340138e-17	0.0923341
4.1503729849675817e-10	-1.3168659e-10	-4.938247e-10	-0.99445736	-1.734014e-17	0.09233539
4.175111415220123e-10	-1.6460824e-10	-6.58433e-10	-0.99445736	-1.7340138e-17	0.09233539
4.200344404156183e-10	-5.2674637e-10	-5.2674637e-10	-0.99445736	-1.734014e-17	0.09233475
4.2250827569934366e-10	-1.975299e-10	-3.950598e-10	-0.99445736	-1.7340138e-17	0.092336036
4.250315908462531e-10	-1.1522577e-10	-7.901196e-10	-0.99445736	-1.7340138e-17	0.09233475
4.2750541514621617e-10	-1.4814742e-10	-5.925897e-10	-0.99445736	-1.7340136e-17	0.09233539
4.300287275014583e-10	-4.938247e-10	-5.925897e-10	-0.99445736	-1.7340136e-17	0.09233539
4.325025573384598e-10	-2.7983402e-10	-4.609031e-10	-0.99445736	-1.7340138e-17	0.0923341
4.350258637475604e-10	-1.8106906e-10	-5.925897e-10	-0.99445736	-1.7340136e-17	0.09233475
4.3754917552468945e-10	-2.6337318e-10	-6.58433e-10	-0.99445736	-1.7340136e-17	0.09233475
4.4002300403414395e-10	-5.2674637e-10	-7.901196e-10	-0.99445736	-1.7340138e-17	0.09233539
4.4254632290841406e-10	-2.6337318e-10	-3.292165e-10	-0.99445736	-1.734014e-17	0.09233475
4.450201453559717e-10	-9.876495e-11	-5.2674637e-10	-0.99445736	-1.7340136e-17	0.092336036
4.475434581031909e-10	-3.2921648e-11	-9.218062e-10	-0.99445736	-1.7340136e-17	0.09233539
4.5001728227527556e-10	-2.9629485e-10	-5.2674637e-10	-0.99445736	-1.7340136e-17	0.0923341
4.5254060377192504e-10	-3.2921648e-11	-5.925897e-10	-0.99445736	-1.7340138e-17	0.09233539
4.550144413827203e-10	-1.3168659e-10	-5.2674637e-10	-0.99445736	-1.734014e-17	0.09233475
4.575377431904172e-10	-1.1522577e-10	-7.2427625e-10	-0.99445736	-1.7340138e-17	0.092336036
4.600115671614763e-10	-3.950598e-10	-1.316866e-09	-0.99445736	-1.7340138e-17	0.09233475
4.625348761801925e-10	-6.255113e-10	-5.5966803e-10	-0.99445736	-1.7340138e-17	0.09233539
4.650087185795142e-10	-3.950598e-10	-1.975299e-10	-0.99445736	-1.734014e-17	0.092336036
4.675320324414534e-10	-3.950598e-10	-5.2674637e-10	-0.99445736	-1.7340136e-17	0.09233539
4.700058558837644e-10	-3.6213813e-10	-5.925897e-10	-0.99445736	-1.7340138e-17	0.09233539
4.725291727738925e-10	-3.292165e-10	-5.925897e-10	-0.99445736	-1.7340138e-17	0.09233475
4.750029998604069e-10	-3.950598e-10	-5.2674637e-10	-0.99445736	-1.7340138e-17	0.09233475
4.775263062991604e-10	-4.2798143e-10	-5.2674637e-10	-0.99445736	-1.7340136e-17	0.09233539
4.800001421001312e-10	1.6460824e-11	-5.925897e-10	-0.99445736	-1.7340138e-17	0.09233475
4.825234549590664e-10	-4.9382474e-11	-5.2674637e-10	-0.99445736	-1.7340136e-17	0.09233539
4.850467658582934e-10	-6.5843296e-11	-6.58433e-10	-0.99445736	-1.7340138e-17	0.09233475
4.875205937260599e-10	-4.938247e-10	-6.9135464e-10	-0.99445736	-1.7340136e-17	0.09233539
4.900439004161565e-10	-5.2674637e-10	-6.58433e-10	-0.99445736	-1.7340136e-17	0.09233475
4.92517737349113e-10	-5.5966803e-10	-9.218062e-10	-0.99445736	-1.7340136e-17	0.092336036
4.950410460652925e-10	-3.950598e-10	-5.2674637e-10	-0.99445736	-1.734014e-17	0.09233539
4.975148776975283e-10	-3.2921648e-11	-4.609031e-10	-0.99445736	-1.7340138e-17	0.09233475
5.000381790428374e-10	-1.8106906e-10	-4.609031e-10	-0.99445736	-1.7340138e-17	0.09233475
5.025120132764676e-10	-1.975299e-10	-9.218062e-10	-0.99445736	-1.7340136e-17	0.09233475
5.050353315058676e-10	-5.2674637e-10	-9.218062e-10	-0.99445736	-1.7340138e-17	0.09233475
5.075091642693768e-10	-3.1275565e-10	-6.58433e-10	-0.99445736	-1.7340138e-17	0.0923341
5.100324684259129e-10	-2.6337318e-10	-3.292165e-10	-0.99445736	-1.7340136e-17	0.09233475
5.125062978240648e-10	-1.6460824e-10	-5.2674637e-10	-0.99445736	-1.7340136e-17	0.09233539
5.150296188353552e-10	-3.7859896e-10	-5.925897e-10	-0.99445736	-1.7340138e-17	0.09233539
5.175034437246557e-10	-5.5966803e-10	-6.58433e-10	-0.99445736	-1.7340138e-17	0.09233475
5.200267531915617e-10	-1.4814742e-10	-5.2674637e-10	-0.99445736	-1.7340136e-17	0.09233539
5.225005779861267e-10	-3.2921648e-11	-5.2674637e-10	-0.99445736	-1.7340136e-17	0.09233475
5.250238944548252e-10	-3.950598e-10	-8.065804e-10	-0.99445736	-1.7340136e-17	0.0923341
5.275471972869465e-10	-1.6460824e-11	-5.2674637e-10	-0.99445736	-1.7340138e-17	0.09233539
5.300210297644684e-10	0	-8.5596286e-10	-0.99445736	-1.7340138e-17	0.09233475
5.325443354071248e-10	-1.3168659e-10	-8.5596286e-10	-0.99445736	-1.7340136e-17	0.09233539
5.350181740993711e-10	-4.115206e-10	-4.2798143e-10	-0.99445736	-1.7340138e-17	0.09233539
5.375414835422749e-10	-2.9629485e-10	-6.58433e-10	-0.99445736	-1.7340136e-17	0.09233475
5.400153158101317e-10	-1.3168659e-10	-5.2674637e-10	-0.99445736	-1.7340138e-17	0.09233539
5.425386183145722e-10	-8.230412e-11	-1.6460824e-10	-0.99445736	-1.7340136e-17	0.09233475
5.45012456570083e-10	-6.5843296e-11	-5.2674637e-10	-0.99445736	-1.7340138e-17	0.09233475
5.475357623515558e-10	-1.975299e-10	-6.58433e-10	-0.99445736	-1.7340136e-17	0.09233475
5.500095917835804e-10	-6.5843296e-11	-7.078154e-10	-0.99445736	-1.7340138e-17	0.09233475
5.525329034292949e-10	-2.9629485e-10	-7.2427625e-10	-0.99445736	-1.7340138e-17	0.09233539
5.550067361902943e-10	-3.1275565e-10	-7.901196e-10	-0.99445736	-1.734014e-17	0.09233475
5.575300403554782e-10	-4.609031e-10	-8.39502e-10	-0.99445736	-1.7340136e-17	0.09233475
5.600038864330044e-10	-6.58433e-10	-7.2427625e-10	-0.99445736	-1.7340138e-17	0.09233539
5.625271900387588e-10	-3.950598e-10	-4.4444226e-10	-0.99445736	-1.7340138e-17	0.09233539
5.65001025143499e-10	-1.6460824e-11	-2.6337318e-10	-0.99445736	-1.7340136e-17	0.09233475
5.675243416667797e-10	2.9629485e-10	-6.58433e-10	-0.99445736	-1.7340138e-17	0.09233539
5.700476428307058e-10	-6.5843296e-11	-7.901196e-10	-0.99445736	-1.734014e-17	0.0923341
5.725214815473156e-10	-2.9629485e-10	-6.4197214e-10	-0.99445736	-1.7340136e-17	0.09233539
5.750447790476796e-10	1.6460824e-11	-4.938247e-10	-0.99445736	-1.734014e-17	0.09233475
5.775186124648003e-10	-6.5843296e-11	-9.876494e-10	-0.99445736	-1.7340138e-17	0.09233539
5.800419353979038e-10	-4.938247e-10	-5.2674637e-10	-0.99445736	-1.7340136e-17	0.092336036
5.825157552862729e-10	-1.6460824e-10	-5.2674637e-10	-0.99445736	-1.7340136e-17	0.09233539
5.850390609656009e-10	1.4814742e-10	-5.432072e-10	-0.99445736	-1.7340138e-17	0.09233475
5.875128951306669e-10	-3.6213813e-10	-8.5596286e-10	-0.99445736	-1.734014e-17	0.09233539
5.900362180105629e-10	-1.975299e-10	-8.5596286e-10	-0.99445736	-1.7340138e-17	0.09233539
5.925100433950606e-10	-5.5966803e-10	-6.58433e-10	-0.99445736	-1.7340136e-17	0.09233539
5.950333568494062e-10	-3.292165e-10	-6.090505e-10	-0.99445736	-1.7340138e-17	0.09233475
5.975071816562285e-10	-2.3045155e-10	-1.975299e-10	-0.99445736	-1.734014e-17	0.09233475
6.000304905754167e-10	8.230412e-11	-5.2674637e-10	-0.99445736	-1.7340136e-17	0.09233539
6.02504320261484e-10	-2.1399071e-10	-5.925897e-10	-0.99445736	-1.7340136e-17	0.09233539
6.050276348779853e-10	-3.950598e-10	-5.7612887e-10	-0.99445736	-1.734014e-17	0.09233475
6.075014623899319e-10	-2.6337318e-10	-3.950598e-10	-0.99445736	-1.7340138e-17	0.09233475
6.100247718913242e-10	-9.876495e-11	-1.975299e-10	-0.99445736	-1.7340136e-17	0.092336036
6.125480800357809e-10	-2.9629485e-10	-6.58433e-10	-0.99445736	-1.7340136e-17	0.09233475
6.15021920420651e-10	-1.3168659e-10	-8.5596286e-10	-0.99445736	-1.7340136e-17	0.09233539
6.175452141286997e-10	-3.7859896e-10	-5.925897e-10	-0.99445736	-1.7340136e-17	0.09233539
6.200190466058952e-10	-9.876495e-11	-8.5596286e-10	-0.99445736	-1.7340136e-17	0.09233539
6.225423623091384e-10	-1.4814742e-10	-7.571979e-10	-0.99445736	-1.7340138e-17	0.09233539
6.250161778664171e-10	-8.230412e-11	-7.901196e-10	-0.99445736	-1.7340136e-17	0.09233475
6.275395013078845e-10	-3.2921648e-11	-7.901196e-10	-0.99445736	-1.7340138e-17	0.09233539
6.300133370892747e-10	-1.975299e-10	-4.609031e-10	-0.99445736	-1.7340136e-17	0.0923341
6.325366439254601e-10	-8.230412e-11	-5.925897e-10	-0.99445736	-1.7340138e-17	0.09233475
6.350104818860732e-10	6.5843296e-11	-4.609031e-10	-0.99445736	-1.7340138e-17	0.09233475
6.375337771913045e-10	3.2921648e-11	-5.925897e-10	-0.99445736	-1.7340138e-17	0.09233539
6.400076087989893e-10	6.5843296e-11	-7.901196e-10	-0.99445736	-1.734014e-17	0.09233539
6.42530921755091e-10	-1.975299e-10	-9.547279e-10	-0.99445736	-1.7340136e-17	0.09233475
6.450047499180746e-10	-4.2798143e-10	-6.58433e-10	-0.99445736	-1.7340138e-17	0.09233475
6.475280540383166e-10	-2.1399071e-10	-5.2674637e-10	-0.99445736	-1.7340138e-17	0.09233539
6.500018923511371e-10	-2.6337318e-10	-4.938247e-10	-0.99445736	-1.7340136e-17	0.09233475
6.525251995343059e-10	-2.4691235e-10	-4.938247e-10	-0.99445736	-1.7340138e-17	0.09233475
6.550485081415066e-10	-1.3168659e-10	-5.925897e-10	-0.99445736	-1.7340138e-17	0.09233475
6.575223497867847e-10	-3.2921648e-11	-6.58433e-10	-0.99445736	-1.7340138e-17	0.09233539
6.600456604322599e-10	-6.5843296e-11	-7.2427625e-10	-0.99445736	-1.734014e-17	0.09233475
6.62519493713355e-10	-1.3168659e-10	-9.218062e-10	-0.99445736	-1.7340138e-17	0.09233539
6.650427843264509e-10	-3.950598e-10	-5.2674637e-10	-0.99445736	-1.7340138e-17	0.09233475
6.675166209466474e-10	-4.2798143e-10	-5.2674637e-10	-0.99445736	-1.7340138e-17	0.09233475
6.700399316173396e-10	-3.6213813e-10	-6.255113e-10	-0.99445736	-1.734014e-17	0.09233475
6.725137653119656e-10	-4.609031e-10	-7.2427625e-10	-0.99445736	-1.7340136e-17	0.09233539
6.750370860741213e-10	-2.6337318e-10	-6.58433e-10	-0.99445736	-1.7340136e-17	0.09233475
6.775109055294195e-10	-4.4444226e-10	-6.4197214e-10	-0.99445736	-1.7340138e-17	0.09233539
6.80034224886669e-10	-3.1275565e-10	-1.975299e-10	-0.99445736	-1.7340136e-17	0.09233475
6.825080629080685e-10	-2.6337318e-10	-4.115206e-10	-0.99445736	-1.7340136e-17	0.0923341
6.850313644204423e-10	-2.3045155e-10	-5.2674637e-10	-0.99445736	-1.7340138e-17	0.09233475
6.875052026475761e-10	-1.4814742e-10	-7.901196e-10	-0.99445736	-1.7340136e-17	0.09233539
6.900285102845171e-10	-2.9629485e-10	-5.925897e-10	-0.99445736	-1.7340136e-17	0.09233475
6.925023525591135e-10	-9.876495e-11	-6.58433e-10	-0.99445736	-1.7340136e-17	0.09233539
6.950256519406768e-10	-3.7859896e-10	-3.4567732e-10	-0.99445736	-1.7340138e-17	0.09233539
6.975489467032153e-10	-3.1275565e-10	-7.901196e-10	-0.99445736	-1.7340136e-17	0.09233475
7.000227833263984e-10	-2.9629485e-10	-5.2674637e-10	-0.99445736	-1.7340138e-17	0.09233539
7.025461039313797e-10	-1.4814742e-10	-5.2674637e-10	-0.99445736	-1.7340136e-17	0.09233539
7.050199285279199e-10	-1.3168659e-10	-6.58433e-10	-0.99445736	-1.7340136e-17	0.09233539
7.075432378491837e-10	-4.9382474e-11	-6.58433e-10	-0.99445736	-1.7340136e-17	0.09233539
7.10017072133809e-10	-1.4814742e-10	-4.609031e-10	-0.99445736	-1.7340138e-17	0.09233539
7.125403682687704e-10	-2.3045155e-10	-5.7612887e-10	-0.99445736	-1.7340138e-17	0.09233539
7.150142045567588e-10	-4.609031e-10	-5.432072e-10	-0.99445736	-1.7340136e-17	0.09233539
7.17537517723326e-10	-1.3168659e-10	-4.609031e-10	-0.99445736	-1.734014e-17	0.09233539
7.200113601864571e-10	-1.8106906e-10	-5.7612887e-10	-0.99445736	-1.7340138e-17	0.09233475
7.225346623584332e-10	-3.2921648e-11	-6.58433e-10	-0.99445736	-1.7340136e-17	0.09233475
7.250084996436653e-10	-1.975299e-10	-7.2427625e-10	-0.99445736	-1.7340134e-17	0.09233539
7.275318052930231e-10	-4.4444226e-10	-3.950598e-10	-0.99445736	-1.7340138e-17	0.09233475
7.300056521432554e-10	-2.6337318e-10	-5.2674637e-10	-0.99445736	-1.734014e-17	0.09233475
7.325289412824076e-10	-2.9629485e-10	-5.2674637e-10	-0.99445736	-1.7340138e-17	0.09233539
7.350027673375909e-10	-3.950598e-10	-3.950598e-10	-0.99445736	-1.7340138e-17	0.09233475
7.375260790492322e-10	-2.3045155e-10	-5.2674637e-10	-0.99445736	-1.7340138e-17	0.09233539
7.400493940741766e-10	-1.975299e-10	-3.950598e-10	-0.99445736	-1.7340136e-17	0.09233539
7.425232338660728e-10	-9.876495e-11	-5.2674637e-10	-0.99445736	-1.7340138e-17	0.0923341
7.45046538343234e-10	-4.4444226e-10	-6.58433e-10	-0.99445736	-1.7340138e-17	0.09233475
7.475203740169823e-10	-5.925897e-10	-2.6337318e-10	-0.99445736	-1.7340138e-17	0.09233539
7.500436785114916e-10	-3.950598e-10	-5.925897e-10	-0.99445736	-1.7340138e-17	0.09233475
7.52517504325668e-10	-5.5966803e-10	-4.609031e-10	-0.99445736	-1.7340136e-17	0.09233475
7.550408177490617e-10	-2.3045155e-10	-1.3168659e-10	-0.99445736	-1.7340138e-17	0.09233475
7.575146420951521e-10	-2.7983402e-10	-1.6460824e-10	-0.99445736	-1.7340138e-17	0.0923341
7.60037957082266e-10	-1.975299e-10	-2.7983402e-10	-0.99445736	-1.7340138e-17	0.09233539
7.625117911830642e-10	-2.3045155e-10	-3.292165e-10	-0.99445736	-1.7340136e-17	0.09233539
7.650350990514892e-10	-9.876495e-11	-6.4197214e-10	-0.99445736	-1.7340138e-17	0.09233475
7.675089252828333e-10	-2.6337318e-10	-4.609031e-10	-0.99445736	-1.7340138e-17	0.09233475
7.700322358372799e-10	3.2921648e-11	-5.2674637e-10	-0.99445736	-1.734014e-17	0.0923341
7.725060707806841e-10	-3.292165e-10	-5.2674637e-10	-0.99445736	-1.7340136e-17	0.09233539
7.750293834018702e-10	-2.9629485e-10	-5.925897e-10	-0.99445736	-1.7340136e-17	0.09233475
7.775032116142329e-10	-3.7859896e-10	-5.925897e-10	-0.99445736	-1.7340134e-17	0.09233475
7.800265336786411e-10	-3.1275565e-10	-6.58433e-10	-0.99445736	-1.7340138e-17	0.09233539
7.825003510186029e-10	-2.4691235e-10	-5.2674637e-10	-0.99445736	-1.734014e-17	0.09233475
7.850236573689055e-10	-6.5843296e-11	-3.1275565e-10	-0.99445736	-1.7340138e-17	0.09233475
7.875469737866231e-10	3.2921648e-11	-5.2674637e-10	-0.99445736	-1.7340138e-17	0.09233475
7.900208113503064e-10	-3.292165e-10	-2.6337318e-10	-0.99445736	-1.7340136e-17	0.09233539
7.925441196009644e-10	1.6460824e-10	-4.609031e-10	-0.99445736	-1.7340136e-17	0.09233539
7.950179437671596e-10	-3.2921648e-11	-5.2674637e-10	-0.99445736	-1.7340136e-17	0.092336036
7.975412520119571e-10	-6.5843296e-11	-8.5596286e-10	-0.99445736	-1.7340134e-17	0.09233539
8.000150778780638e-10	4.9382474e-11	-5.925897e-10	-0.99445736	-1.7340138e-17	0.0923341
8.025383948710801e-10	-6.5843296e-11	-7.901196e-10	-0.99445736	-1.7340138e-17	0.09233539
8.050122295833216e-10	6.5843296e-11	-5.2674637e-10	-0.99445736	-1.7340136e-17	0.09233539
8.075355386101215e-10	-6.5843296e-11	-7.901196e-10	-0.99445736	-1.7340138e-17	0.09233475
8.100093742978969e-10	-3.2921648e-11	-5.2674637e-10	-0.99445736	-1.7340136e-17	0.092336036
8.125326776972718e-10	-3.2921648e-11	-7.2427625e-10	-0.99445736	-1.7340138e-17	0.09233539
8.150065057913365e-10	9.876495e-11	-5.925897e-10	-0.99445736	-1.7340136e-17	0.09233539
8.175298262419881e-10	-1.975299e-10	-4.609031e-10	-0.99445736	-1.734014e-17	0.0923341
8.200036656561702e-10	-3.1275565e-10	-5.2674637e-10	-0.99445736	-1.7340138e-17	0.09233475
8.225269598572537e-10	-4.2798143e-10	-6.58433e-10	-0.99445736	-1.7340138e-17	0.09233539
8.250007893478049e-10	-4.938247e-10	-8.5596286e-10	-0.99445736	-1.734014e-17	0.09233539
8.275241076173532e-10	-4.2798143e-10	-1.0534927e-09	-0.99445736	-1.734014e-17	0.09233475
8.300474130608191e-10	-5.5966803e-10	-5.2674637e-10	-0.99445736	-1.7340138e-17	0.09233475
8.32521241983336e-10	-3.4567732e-10	-5.7612887e-10	-0.99445736	-1.7340138e-17	0.09233475
8.35044558894354e-10	-3.292165e-10	-4.609031e-10	-0.99445736	-1.7340136e-17	0.09233475
8.375183832873925e-10	-2.1399071e-10	-1.3168659e-10	-0.99445736	-1.734014e-17	0.09233539
8.40041692453724e-10	-4.9382474e-11	-5.925897e-10	-0.99445736	-1.734014e-17	0.09233539
8.425155255638446e-10	-2.7983402e-10	-5.2674637e-10	-0.99445736	-1.7340136e-17	0.09233539