# t (s)	mx ()	my ()	mz ()	E_total (J)	MaxAngle (rad)
0	5.576104e-10	6.5843296e-11	0.9955562	-1.2884942e-16	0.65441144
2.7445932168028707e-12	6.4197214e-10	5.432072e-10	0.99183446	-1.286928e-16	0.5855838
5.178321505474019e-12	-1.3168659e-10	1.0534927e-09	0.98750424	-1.2826624e-16	0.55579376
7.503934137656915e-12	-1.4485525e-09	7.078154e-10	0.98300606	-1.2740944e-16	0.59527
1.0178759424771822e-11	-2.8312617e-09	-5.2674637e-10	0.97572166	-1.2540585e-16	0.6284978
1.2585612488540791e-11	-6.814781e-09	2.5020452e-09	0.95492446	-1.2288746e-16	0.5578093
1.5123921982111655e-11	-4.6221995e-08	-9.5472785e-09	0.9033459	-1.2218032e-16	0.35893527
1.771363825106797e-11	4.312736e-09	-1.3194997e-07	0.8409247	-1.1819171e-16	0.49251768
2.015330432023379e-11	4.0980868e-07	-6.7423535e-08	0.76979953	-1.1162536e-16	0.6889176
2.2533578199065916e-11	2.387478e-07	3.9624496e-07	0.70006067	-1.1647006e-16	0.4133115
2.5259723496106484e-11	-6.4230136e-07	-5.2733895e-07	0.64495856	-1.1404827e-16	0.43076712
2.7612233246956267e-11	-1.4338694e-06	1.5897864e-06	0.5788786	-1.10680134e-16	0.42271417
3.008331418293613e-11	-8.365391e-07	3.0620424e-06	0.52249	-1.1227791e-16	0.6130856
3.27722079678053e-11	5.0304277e-07	2.255742e-06	0.5027074	-1.1453249e-16	0.68624604
3.519049011488208e-11	1.0973444e-06	1.8267729e-06	0.49674603	-1.1637706e-16	0.7433221
3.757609739667091e-11	1.1971629e-06	1.4570463e-06	0.4929976	-1.178105e-16	0.74992484
4.028542083704622e-11	1.014925e-06	1.0083901e-06	0.4882452	-1.1899806e-16	0.7275871
4.267224752880911e-11	7.9631707e-07	6.4849064e-07	0.48342136	-1.1969403e-16	0.69764596
4.50752611563019e-11	6.0873776e-07	3.8511743e-07	0.4784132	-1.2013307e-16	0.6626684
4.7764122615375814e-11	4.5596482e-07	2.1827053e-07	0.47308347	-1.2041494e-16	0.6220453
5.016403082204671e-11	3.5163612e-07	1.5308567e-07	0.46877372	-1.2055431e-16	0.6067454
5.255545797702707e-11	2.6073945e-07	1.2852611e-07	0.46495804	-1.2063374e-16	0.5926595
5.525130200511511e-11	1.6875637e-07	1.1469903e-07	0.46122208	-1.2068375e-16	0.5767655
5.764254235438339e-11	1.00542714e-07	9.883079e-08	0.4583825	-1.2070823e-16	0.56828606
6.003693443612271e-11	4.9217864e-08	7.835352e-08	0.45595276	-1.2072181e-16	0.567833
6.272917236539595e-11	1.3292116e-08	5.3793975e-08	0.45367163	-1.20729e-16	0.5658047
6.512335283971104e-11	-3.835372e-09	3.654303e-08	0.452007	-1.2073086e-16	0.56377006
6.751700754154922e-11	-1.2115167e-08	2.3407292e-08	0.45065054	-1.2073019e-16	0.56144553
7.020953858167771e-11	-1.6477285e-08	1.517688e-08	0.44944772	-1.2072766e-16	0.55976313
7.260303431350199e-11	-1.8781801e-08	9.77773e-09	0.4486245	-1.207247e-16	0.5582926
7.529570225596252e-11	-2.0271505e-08	6.1234267e-09	0.4479308	-1.2072113e-16	0.5569664
7.768866200791875e-11	-2.0394962e-08	1.6460824e-09	0.447487	-1.2071809e-16	0.55644065
8.00819599799403e-11	-1.9292086e-08	-2.1069855e-09	0.44717592	-1.2071531e-16	0.5560513
8.277420813843192e-11	-1.6460824e-08	-4.6419526e-09	0.44695234	-1.2071262e-16	0.5557719
8.516759952604625e-11	-1.3695406e-08	-5.0040905e-09	0.44684073	-1.207106e-16	0.5556456
8.75603930722833e-11	-1.0650154e-08	-6.0246617e-09	0.44679138	-1.2070897e-16	0.5556084
9.025275270780742e-11	-7.4073707e-09	-5.135777e-09	0.44679064	-1.2070752e-16	0.55564296
9.264507177976393e-11	-5.4814544e-09	-4.510266e-09	0.446824	-1.2070654e-16	0.55571836
9.503826547379444e-11	-4.016441e-09	-3.753068e-09	0.44687808	-1.2070582e-16	0.55581856
9.77299598662063e-11	-2.5678886e-09	-2.897105e-09	0.44695267	-1.2070528e-16	0.5559447
1.0012262179685734e-10	-1.176949e-09	-2.897105e-09	0.4470241	-1.2070496e-16	0.55606025
1.025154445126903e-10	2.9629485e-10	-1.7448474e-09	0.44709557	-1.2070478e-16	0.55617183
1.0520695389240602e-10	1.4485525e-09	-1.7448474e-09	0.447172	-1.2070472e-16	0.5562878
1.0759956173290931e-10	1.8929949e-09	-5.925897e-10	0.44723397	-1.2070474e-16	0.55638015
1.1029119334446891e-10	2.255133e-09	3.6213813e-10	0.44729543	-1.2070479e-16	0.5564698
1.1268357445983172e-10	2.1069855e-09	-6.5843296e-11	0.44734222	-1.207049e-16	0.55653733
1.1507605804575551e-10	2.4855844e-09	9.876495e-11	0.44738153	-1.2070501e-16	0.55659366
1.1776753672238331e-10	2.493815e-09	4.938247e-10	0.44741744	-1.2070515e-16	0.5566445
1.201598598744877e-10	2.716036e-09	5.2674637e-10	0.4474425	-1.2070528e-16	0.5566797
1.2255230535269625e-10	2.6831144e-09	7.2427625e-10	0.44746196	-1.207054e-16	0.55670637
1.2524355337136972e-10	2.7818794e-09	9.876494e-10	0.44747812	-1.207055e-16	0.556728
1.2763619434812312e-10	2.4032802e-09	1.0534927e-09	0.44748816	-1.2070558e-16	0.5567407
1.3002864882680544e-10	2.4526627e-09	1.2510226e-09	0.4474949	-1.2070568e-16	0.5567488
1.3271986284634723e-10	2.5514277e-09	9.876494e-10	0.44749942	-1.2070574e-16	0.5567528
1.3511237363989615e-10	2.2386721e-09	1.1193361e-09	0.44750133	-1.207058e-16	0.5567532
1.3750439413065453e-10	2.3868196e-09	1.1851794e-09	0.44750178	-1.2070586e-16	0.55675143
1.4019608418921729e-10	2.6995752e-09	5.925897e-10	0.447501	-1.2070586e-16	0.55674785
1.4258814295434187e-10	2.7983402e-09	7.2427625e-10	0.44749963	-1.2070591e-16	0.55674326
1.4527978085808647e-10	2.4032802e-09	1.1851794e-09	0.44749764	-1.2070593e-16	0.55673766
1.4767185739264343e-10	2.2386721e-09	1.1851794e-09	0.44749564	-1.2070593e-16	0.5567326
1.500644273852377e-10	2.1892896e-09	1.2510226e-09	0.44749358	-1.2070594e-16	0.5567279
1.5275560721645634e-10	2.0082205e-09	8.230412e-10	0.4474914	-1.2070594e-16	0.55672294
1.5514802452114824e-10	1.9423774e-09	5.925897e-10	0.44748962	-1.2070594e-16	0.5567191
1.5754024329364746e-10	2.378589e-09	7.901196e-10	0.44748807	-1.2070594e-16	0.55671537
1.602315360044703e-10	2.3045155e-09	2.3045155e-10	0.44748643	-1.2070593e-16	0.5567121
1.626240648378397e-10	2.436202e-09	6.9135464e-10	0.44748536	-1.2070594e-16	0.55670947
1.6501608680206877e-10	2.4691236e-09	6.58433e-10	0.4474844	-1.2070593e-16	0.5567078
1.677074677471529e-10	2.5020452e-09	3.950598e-10	0.44748357	-1.2070593e-16	0.5567067
1.700998068124772e-10	2.2057505e-09	7.2427625e-10	0.44748297	-1.2070591e-16	0.5567056
1.7279092997287001e-10	2.353898e-09	3.6213813e-10	0.44748253	-1.2070594e-16	0.5567049
1.7518355647418645e-10	2.4855844e-09	4.609031e-10	0.4474822	-1.2070593e-16	0.55670464
1.775755011479056e-10	2.59258e-09	6.5843296e-11	0.44748202	-1.2070591e-16	0.55670464
1.802671025235345e-10	2.3868196e-09	2.9629485e-10	0.44748184	-1.2070591e-16	0.5567049
1.8265909938329073e-10	2.5020452e-09	3.292165e-10	0.4474818	-1.207059e-16	0.5567055
1.8505155239004416e-10	2.5678886e-09	3.950598e-10	0.4474818	-1.207059e-16	0.5567057
1.8774273069029745e-10	2.4032802e-09	8.5596286e-10	0.44748184	-1.2070591e-16	0.55670613
1.901350091771762e-10	2.1399071e-09	6.255113e-10	0.4474819	-1.2070591e-16	0.5567067
1.9252741925657007e-10	2.2715938e-09	1.6460824e-10	0.44748193	-1.2070589e-16	0.55670714
1.9521856144730426e-10	2.419741e-09	2.3045155e-10	0.447482	-1.207059e-16	0.5567077
1.976108215653894e-10	2.534967e-09	-9.876495e-11	0.44748205	-1.207059e-16	0.5567082
2.0000298190802735e-10	2.518506e-09	5.5966803e-10	0.44748208	-1.207059e-16	0.5567084
2.0269441052802847e-10	2.5678886e-09	1.6460824e-10	0.4474822	-1.207059e-16	0.55670893
2.050864022865308e-10	2.3374371e-09	8.888845e-10	0.4474822	-1.207059e-16	0.5567093
2.0777791696340427e-10	2.4526627e-09	4.938247e-10	0.44748226	-1.207059e-16	0.5567094
2.1016998063114312e-10	2.2715938e-09	6.58433e-10	0.4474823	-1.207059e-16	0.5567092
2.1256240061612703e-10	2.534967e-09	6.58433e-10	0.44748232	-1.207059e-16	0.55670965
2.1525362853049572e-10	2.3868196e-09	8.5596286e-10	0.44748232	-1.207059e-16	0.5567101
2.1764577652522834e-10	2.1892896e-09	1.975299e-10	0.44748235	-1.207059e-16	0.5567101
2.2003822210414681e-10	2.0082205e-09	3.2921648e-11	0.44748235	-1.207059e-16	0.5567102
2.2272925247865155e-10	2.0740638e-09	6.58433e-10	0.44748238	-1.207059e-16	0.5567099
2.2512167676533576e-10	2.0082205e-09	-4.2798143e-10	0.44748238	-1.207059e-16	0.55671
2.275139059155593e-10	1.9341468e-09	4.773639e-10	0.44748238	-1.207059e-16	0.55670977
2.3020515287590141e-10	2.1892896e-09	4.609031e-10	0.44748238	-1.207059e-16	0.5567102
2.3259738779661047e-10	2.2057505e-09	2.9629485e-10	0.44748238	-1.207059e-16	0.55671
2.352885823882913e-10	2.3045155e-09	1.1851794e-09	0.44748238	-1.207059e-16	0.55670977
2.376808783212531e-10	2.0411421e-09	1.6460824e-10	0.44748238	-1.207059e-16	0.55670965
2.4007300215918656e-10	2.016451e-09	4.9382474e-11	0.44748238	-1.207059e-16	0.55670977
2.427642132878196e-10	1.9752988e-09	-3.2921648e-11	0.44748238	-1.207059e-16	0.5567099
2.451563687255967e-10	2.5020452e-09	5.2674637e-10	0.44748238	-1.207059e-16	0.55671
2.4754870172436763e-10	2.6501927e-09	3.950598e-10	0.44748238	-1.207059e-16	0.55670977
2.502398789378144e-10	2.4691236e-09	7.2427625e-10	0.44748238	-1.207059e-16	0.55670965
2.526321821502851e-10	2.3127458e-09	2.6337318e-10	0.44748238	-1.207059e-16	0.5567099
2.55024407238685e-10	2.1728288e-09	-1.3168659e-10	0.44748235	-1.207059e-16	0.5567101
2.577156778397536e-10	2.1645985e-09	5.2674637e-10	0.44748238	-1.207059e-16	0.5567099
2.6010781211999707e-10	2.534967e-09	2.3045155e-10	0.44748235	-1.207059e-16	0.55670977
2.6279891419292054e-10	2.4691236e-09	2.3045155e-10	0.44748235	-1.207059e-16	0.55670977
2.651912883998377e-10	2.4032802e-09	3.950598e-10	0.44748235	-1.207059e-16	0.5567101
2.675835131873796e-10	2.3456674e-09	1.975299e-10	0.44748235	-1.207059e-16	0.55671
2.7027458372468725e-10	2.3374371e-09	7.571979e-10	0.44748235	-1.207059e-16	0.5567099
2.726669982457849e-10	2.1728288e-09	5.5966803e-10	0.44748235	-1.207059e-16	0.55670977
2.750589795737347e-10	2.4691236e-09	5.925897e-10	0.44748235	-1.207059e-16	0.55670947
2.7775034218340197e-10	2.2222113e-09	8.230412e-10	0.44748238	-1.207059e-16	0.5567101
2.8014245659683676e-10	2.1399071e-09	6.9135464e-10	0.44748235	-1.207059e-16	0.5567102
2.825346741684017e-10	2.1728288e-09	4.609031e-10	0.44748235	-1.207059e-16	0.55671
2.852259097510041e-10	2.255133e-09	2.3045155e-10	0.44748238	-1.207059e-16	0.55670965
2.8761810159255475e-10	2.1892896e-09	7.2427625e-10	0.44748238	-1.207059e-16	0.55670965
2.900102442327066e-10	2.4032802e-09	1.3168659e-10	0.44748235	-1.207059e-16	0.55670947
2.9270151293872057e-10	2.3045155e-09	3.950598e-10	0.44748235	-1.207059e-16	0.55671
2.950936020679244e-10	2.1728288e-09	6.5843296e-11	0.44748235	-1.207059e-16	0.5567099
2.9778508315613913e-10	2.3868196e-09	2.9629485e-10	0.44748235	-1.207059e-16	0.55670977
3.0017697720914393e-10	2.3703588e-09	0	0.44748235	-1.207059e-16	0.55670947
3.025694264608017e-10	2.3045155e-09	1.6460824e-10	0.44748235	-1.207059e-16	0.55670947
3.052602563040826e-10	2.1728288e-09	9.876495e-11	0.44748238	-1.207059e-16	0.55670977
3.076528257246537e-10	2.3045155e-09	4.609031e-10	0.44748235	-1.207059e-16	0.55670977
3.100446734079221e-10	2.255133e-09	1.3168659e-10	0.44748235	-1.207059e-16	0.5567099
3.1273613695927556e-10	2.2386721e-09	-1.975299e-10	0.44748235	-1.207059e-16	0.55670947
3.1512812613126596e-10	2.255133e-09	3.950598e-10	0.44748235	-1.207059e-16	0.55671
3.175204049841463e-10	2.3374371e-09	3.4567732e-10	0.44748235	-1.207059e-16	0.5567102
3.2021155165769285e-10	2.3209763e-09	3.2921648e-11	0.44748238	-1.207059e-16	0.5567099
3.226038151447717e-10	2.436202e-09	3.292165e-10	0.44748235	-1.207059e-16	0.5567099
3.2529475298278515e-10	2.2880546e-09	3.6213813e-10	0.44748235	-1.207059e-16	0.5567099
3.276871412940197e-10	2.419741e-09	-1.3168659e-10	0.44748235	-1.207059e-16	0.55671
3.300792196903724e-10	2.6995752e-09	4.938247e-10	0.44748235	-1.207059e-16	0.5567102
3.327705177725765e-10	2.4032802e-09	5.2674637e-10	0.44748235	-1.207059e-16	0.55671
3.3516279975332256e-10	2.4855844e-09	9.547279e-10	0.44748238	-1.207059e-16	0.55670977
3.3755486145839203e-10	2.7489577e-09	4.609031e-10	0.44748238	-1.207059e-16	0.55670947
3.4024607749381495e-10	2.1892896e-09	0	0.44748235	-1.207059e-16	0.5567102
3.4263827377494147e-10	2.3703588e-09	0	0.44748235	-1.207059e-16	0.5567102
3.450303468103062e-10	2.534967e-09	3.292165e-10	0.44748235	-1.207059e-16	0.55671
3.477216538561779e-10	2.633732e-09	2.3045155e-10	0.44748235	-1.207059e-16	0.55670965
3.501136482678854e-10	2.8065705e-09	8.230412e-11	0.44748235	-1.207059e-16	0.5567093
3.525059081154625e-10	2.4855844e-09	9.876495e-11	0.44748235	-1.207059e-16	0.55670947
3.551969177297621e-10	2.3868196e-09	5.5966803e-10	0.44748238	-1.207059e-16	0.55671
3.575892891647877e-10	2.1810591e-09	2.9629485e-10	0.44748235	-1.207059e-16	0.5567101
3.602803408328677e-10	2.1069855e-09	1.6460824e-10	0.44748238	-1.207059e-16	0.55670947
3.6267253328480276e-10	2.1399071e-09	2.9629485e-10	0.44748235	-1.207059e-16	0.5567094
3.6506468165168575e-10	2.3374371e-09	5.925897e-10	0.44748235	-1.207059e-16	0.5567094
3.67756024217959e-10	2.2715938e-09	4.2798143e-10	0.44748235	-1.207059e-16	0.55671
3.7014796898677764e-10	2.3374371e-09	2.3045155e-10	0.44748238	-1.207059e-16	0.55671
3.725402304194422e-10	2.2880546e-09	3.950598e-10	0.44748235	-1.207059e-16	0.55670965
3.7523134599440986e-10	2.1728288e-09	4.2798143e-10	0.44748235	-1.207059e-16	0.5567094
3.7762350954473924e-10	1.8929949e-09	3.292165e-10	0.44748235	-1.207059e-16	0.55670965
3.8001578593168613e-10	2.0740638e-09	1.3168659e-10	0.44748235	-1.207059e-16	0.5567101
3.8270678115579976e-10	2.2057505e-09	2.3045155e-10	0.44748238	-1.207059e-16	0.55670977
3.8509911559911583e-10	2.2715938e-09	2.1399071e-10	0.44748238	-1.207059e-16	0.5567099
3.8779004238267104e-10	2.2057505e-09	-6.5843296e-11	0.44748235	-1.207059e-16	0.55670977
3.901822976482723e-10	2.2715938e-09	3.2921648e-11	0.44748235	-1.207059e-16	0.5567099
3.9257437259446233e-10	2.0740638e-09	3.7859896e-10	0.44748238	-1.207059e-16	0.5567103
3.952655832000279e-10	2.1728288e-09	2.1399071e-10	0.44748238	-1.207059e-16	0.55671
3.976577276928841e-10	2.3374371e-09	3.292165e-10	0.44748235	-1.207059e-16	0.55671
4.0004990494677607e-10	2.633732e-09	2.9629485e-10	0.44748235	-1.207059e-16	0.55671
4.0274118236154655e-10	2.3703588e-09	-9.876495e-11	0.44748235	-1.207059e-16	0.55671054
4.0513312486268123e-10	2.534967e-09	7.901196e-10	0.44748235	-1.207059e-16	0.5567102
4.075254960080322e-10	2.2222113e-09	-1.3168659e-10	0.44748238	-1.207059e-16	0.5567102
4.102165180054128e-10	2.4608933e-09	0	0.44748235	-1.207059e-16	0.55670947
4.1260871570900675e-10	2.6666536e-09	1.975299e-10	0.44748235	-1.2070591e-16	0.5567093
4.1500075639469317e-10	2.3868196e-09	4.2798143e-10	0.44748235	-1.207059e-16	0.55670947
4.1769192354878805e-10	2.5514277e-09	1.3168659e-10	0.44748238	-1.207059e-16	0.5567102
4.200841526224842e-10	2.6008102e-09	4.938247e-10	0.44748235	-1.207059e-16	0.5567102
4.227752091101887e-10	2.3374371e-09	0	0.44748235	-1.207059e-16	0.55670947
4.2516750381200594e-10	2.4032802e-09	7.901196e-10	0.44748235	-1.207059e-16	0.55670947
4.2755963578336604e-10	2.1892896e-09	1.1522577e-10	0.44748235	-1.207059e-16	0.55670965
4.302505802594776e-10	2.1728288e-09	-4.9382474e-11	0.44748235	-1.207059e-16	0.5567101
4.3264276832076266e-10	2.378589e-09	1.3168659e-10	0.44748235	-1.207059e-16	0.5567099
4.35035035728672e-10	2.6831144e-09	2.6337318e-10	0.44748235	-1.207059e-16	0.55670965
4.3772608049988733e-10	2.0905246e-09	1.3168659e-10	0.44748235	-1.207059e-16	0.5567093
4.401181816787241e-10	2.4526627e-09	3.292165e-10	0.44748235	-1.207059e-16	0.55670977
4.425104576427303e-10	2.436202e-09	1.218101e-09	0.44748235	-1.2070591e-16	0.55671
4.452014650091733e-10	2.3374371e-09	1.3168659e-10	0.44748238	-1.207059e-16	0.5567099
4.4759367270228637e-10	2.1069855e-09	-3.2921648e-11	0.44748235	-1.207059e-16	0.55671
4.5028459093604006e-10	2.1728288e-09	8.888845e-10	0.44748235	-1.207059e-16	0.55670947
4.5267690926287937e-10	2.3045155e-09	7.571979e-10	0.44748235	-1.207059e-16	0.55671
4.5506893884956547e-10	2.1728288e-09	3.950598e-10	0.44748235	-1.207059e-16	0.5567101
4.577602349141963e-10	2.3868196e-09	-9.876495e-11	0.44748235	-1.207059e-16	0.55671
4.601520382293329e-10	2.2880546e-09	4.609031e-10	0.44748238	-1.207059e-16	0.5567101
4.6254445566214095e-10	2.2057505e-09	2.9629485e-10	0.44748235	-1.207059e-16	0.55671
4.652353606343866e-10	2.5020452e-09	3.950598e-10	0.44748235	-1.2070591e-16	0.5567101
4.676277807207002e-10	2.6666536e-09	1.975299e-10	0.44748235	-1.207059e-16	0.5567104
4.700198462763326e-10	2.4526627e-09	2.6337318e-10	0.44748235	-1.207059e-16	0.5567102
4.727109740957612e-10	2.3045155e-09	7.901196e-10	0.44748235	-1.207059e-16	0.55670977
4.751031300007955e-10	2.3703588e-09	2.9629485e-10	0.44748235	-1.207059e-16	0.5567099
4.777943250715749e-10	2.436202e-09	-2.3045155e-10	0.44748235	-1.207059e-16	0.5567103
4.801863942075715e-10	2.5020452e-09	-1.3168659e-10	0.44748235	-1.207059e-16	0.5567101
4.825785991260316e-10	2.4855844e-09	2.9629485e-10	0.44748235	-1.207059e-16	0.5567101
4.852696285061174e-10	2.353898e-09	1.975299e-10	0.44748238	-1.207059e-16	0.55670965
4.876618826115643e-10	2.5843494e-09	6.58433e-10	0.44748235	-1.207059e-16	0.5567094
4.900537709804168e-10	2.6995752e-09	2.9629485e-10	0.44748238	-1.207059e-16	0.5567093
4.927451014703502e-10	2.6995752e-09	3.950598e-10	0.44748235	-1.207059e-16	0.5567102
4.951370512908424e-10	2.4691236e-09	7.2427625e-10	0.44748235	-1.207059e-16	0.5567101
4.975292190511481e-10	2.3703588e-09	2.9629485e-10	0.44748235	-1.207059e-16	0.5567102
5.00220216370267e-10	2.4032802e-09	1.6460824e-10	0.44748238	-1.207059e-16	0.5567093
5.026125143871415e-10	2.156368e-09	1.975299e-10	0.44748235	-1.207059e-16	0.5567094
5.05004389391839e-10	2.633732e-09	1.6460824e-10	0.44748235	-1.207059e-16	0.5567099
5.076957042934445e-10	2.7983402e-09	4.4444226e-10	0.44748235	-1.207059e-16	0.55671
5.100876311791275e-10	2.6666536e-09	2.6337318e-10	0.44748238	-1.207059e-16	0.55671
5.127788203492927e-10	2.6666536e-09	2.6337318e-10	0.44748235	-1.207059e-16	0.5567094
5.151707557570822e-10	2.633732e-09	7.2427625e-10	0.44748235	-1.207059e-16	0.5567102
5.175632696780861e-10	2.6008102e-09	6.58433e-10	0.44748235	-1.207059e-16	0.5567102
5.202539593845135e-10	2.3374371e-09	6.9135464e-10	0.44748235	-1.207059e-16	0.55670977
5.226466186546864e-10	2.2386721e-09	7.571979e-10	0.44748235	-1.207059e-16	0.5567101
5.250382144130213e-10	2.2057505e-09	5.7612887e-10	0.44748235	-1.207059e-16	0.55671
5.277297348286957e-10	2.1234463e-09	-1.3168659e-10	0.44748235	-1.207059e-16	0.5567103
5.301215959397447e-10	2.3045155e-09	6.9135464e-10	0.44748235	-1.207059e-16	0.5567104
5.325137461811093e-10	2.436202e-09	4.2798143e-10	0.44748235	-1.207059e-16	0.5567104
5.352047622120315e-10	2.4032802e-09	5.925897e-10	0.44748235	-1.207059e-16	0.5567101
5.375970766552723e-10	2.2386721e-09	8.5596286e-10	0.44748235	-1.207059e-16	0.55671
5.40288084491478e-10	2.3703588e-09	6.58433e-10	0.44748235	-1.207059e-16	0.55671066
5.426802112690467e-10	2.4032802e-09	1.975299e-10	0.44748235	-1.207059e-16	0.55671066
5.450721354709943e-10	2.255133e-09	3.950598e-10	0.44748235	-1.207059e-16	0.5567102
5.477633398925789e-10	2.279824e-09	3.292165e-10	0.44748235	-1.207059e-16	0.55670977
5.501554498968974e-10	2.3868196e-09	2.4691235e-10	0.44748235	-1.207059e-16	0.5567094
5.525477323795066e-10	2.3703588e-09	-3.292165e-10	0.44748238	-1.207059e-16	0.5567093
5.552386981761957e-10	2.3045155e-09	0	0.44748235	-1.207059e-16	0.5567103
5.576308982969205e-10	2.1069855e-09	1.6460824e-10	0.44748235	-1.207059e-16	0.5567102
5.600230153971987e-10	2.0740638e-09	1.4814742e-10	0.44748235	-1.207059e-16	0.55671
5.627140084254491e-10	2.1399071e-09	3.950598e-10	0.44748238	-1.207059e-16	0.5567094
5.651061996709913e-10	2.3209763e-09	6.5843296e-11	0.44748235	-1.207059e-16	0.5567094
5.677972694999092e-10	2.0411421e-09	6.58433e-10	0.44748235	-1.207059e-16	0.5567102
5.701895315823072e-10	2.2222113e-09	4.609031e-10	0.44748235	-1.207059e-16	0.5567101
5.7258129431328e-10	2.2880546e-09	1.975299e-10	0.44748235	-1.207059e-16	0.55670977
5.752726031737691e-10	2.5514277e-09	0	0.44748235	-1.207059e-16	0.5567094
5.776645865702846e-10	2.2715938e-09	-6.5843296e-11	0.44748235	-1.207059e-16	0.55670977
5.800570314290953e-10	2.39505e-09	7.571979e-10	0.44748235	-1.207059e-16	0.5567102
5.827478947982927e-10	2.436202e-09	5.2674637e-10	0.44748235	-1.207059e-16	0.55671
5.851401910062928e-10	2.3456674e-09	3.292165e-10	0.44748238	-1.207059e-16	0.55671
5.875320184685424e-10	2.2222113e-09	9.218062e-10	0.44748235	-1.207059e-16	0.5567103
5.902234173709457e-10	2.2057505e-09	5.925897e-10	0.44748235	-1.207059e-16	0.55671
5.926151917464809e-10	2.1728288e-09	1.975299e-10	0.44748235	-1.207059e-16	0.5567104
5.950075088402946e-10	2.3374371e-09	1.975299e-10	0.44748238	-1.207059e-16	0.5567104
5.976984974132924e-10	2.1069855e-09	4.609031e-10	0.44748235	-1.207059e-16	0.5567102
6.000907162713551e-10	2.2386721e-09	2.6337318e-10	0.44748235	-1.207059e-16	0.55671
6.027816459790633e-10	2.436202e-09	5.2674637e-10	0.44748235	-1.207059e-16	0.5567104
6.051739786305803e-10	2.3209763e-09	4.609031e-10	0.44748235	-1.207059e-16	0.5567107
6.075659221502488e-10	2.0740638e-09	4.115206e-10	0.44748235	-1.207059e-16	0.55671054
6.102570542029491e-10	2.2880546e-09	9.876495e-11	0.44748235	-1.207059e-16	0.5567101
6.126491183113556e-10	2.1399071e-09	7.901196e-10	0.44748235	-1.207059e-16	0.5567099
6.150412265882704e-10	2.3703588e-09	-9.876495e-11	0.44748238	-1.207059e-16	0.55670947
6.177324203143788e-10	2.3703588e-09	3.950598e-10	0.44748235	-1.207059e-16	0.5567104
6.201242840559726e-10	2.2386721e-09	1.975299e-10	0.44748235	-1.207059e-16	0.5567102
6.225164978032072e-10	2.4032802e-09	-9.876495e-11	0.44748235	-1.207059e-16	0.5567101
6.252074683755621e-10	2.5678886e-09	1.975299e-10	0.44748238	-1.207059e-16	0.5567094
6.275996448190211e-10	2.4691236e-09	2.6337318e-10	0.44748238	-1.207059e-16	0.5567093
6.30290656740266e-10	2.0411421e-09	8.230412e-10	0.44748235	-1.207059e-16	0.5567102
6.32682853774736e-10	1.8106907e-09	6.748938e-10	0.44748235	-1.207059e-16	0.5567102
6.350749882246363e-10	2.0082205e-09	1.6460824e-10	0.44748235	-1.207059e-16	0.55670977
6.37765891387469e-10	2.0082205e-09	6.5843296e-11	0.44748235	-1.207059e-16	0.5567094
6.401581775609912e-10	2.2304416e-09	-6.5843296e-11	0.44748235	-1.207059e-16	0.55670947
6.425501398768637e-10	2.0740638e-09	4.609031e-10	0.44748235	-1.207059e-16	0.55671
6.452413056259755e-10	2.0411421e-09	0	0.44748235	-1.207059e-16	0.55670977
6.476333681108196e-10	2.2715938e-09	4.2798143e-10	0.44748238	-1.207059e-16	0.55670977
6.500254284679986e-10	2.3209763e-09	2.6337318e-10	0.44748238	-1.207059e-16	0.55671
6.52716558920483e-10	2.2880546e-09	-3.2921648e-11	0.44748235	-1.207059e-16	0.5567101
6.551086416063647e-10	2.4032802e-09	2.3045155e-10	0.44748235	-1.207059e-16	0.55671066
6.575005003316372e-10	2.3703588e-09	-9.876495e-11	0.44748235	-1.207059e-16	0.5567107
6.601917466177364e-10	2.1481377e-09	2.9629485e-10	0.44748235	-1.207059e-16	0.5567101
6.625838032060799e-10	2.0740638e-09	6.9135464e-10	0.44748235	-1.207059e-16	0.5567101
6.652749605651268e-10	1.777769e-09	1.6460824e-10	0.44748235	-1.207059e-16	0.5567104
6.67666920582212e-10	2.0740638e-09	5.925897e-10	0.44748235	-1.207059e-16	0.5567107
6.70059192455105e-10	2.2386721e-09	3.2921648e-11	0.44748235	-1.207059e-16	0.55671066
6.727502174325755e-10	2.1234463e-09	6.090505e-10	0.44748235	-1.207059e-16	0.5567102
6.75142261139926e-10	2.2469024e-09	2.6337318e-10	0.44748235	-1.207059e-16	0.5567099
6.775344430587384e-10	2.1069855e-09	1.3168659e-10	0.44748235	-1.207059e-16	0.55670977
6.802253689964068e-10	2.0082205e-09	1.3168659e-10	0.44748235	-1.207059e-16	0.5567107
6.826175260905469e-10	2.477354e-09	1.975299e-10	0.44748235	-1.207059e-16	0.55671054
6.850096925708579e-10	2.4526627e-09	3.2921648e-11	0.44748235	-1.207059e-16	0.5567101
6.87700745950733e-10	2.1069855e-09	1.3168659e-10	0.44748238	-1.207059e-16	0.55670977
6.900927800600715e-10	2.255133e-09	3.6213813e-10	0.44748235	-1.207059e-16	0.5567093
6.927838838295297e-10	2.419741e-09	5.925897e-10	0.44748235	-1.207059e-16	0.5567104
6.951759366708252e-10	2.3045155e-09	7.2427625e-10	0.44748235	-1.207059e-16	0.55671
6.975679772380149e-10	2.353898e-09	4.609031e-10	0.44748235	-1.207059e-16	0.55671
7.002590755227166e-10	2.2386721e-09	1.4814742e-10	0.44748235	-1.207059e-16	0.5567093
7.026511678197865e-10	2.2633633e-09	6.5843296e-11	0.44748235	-1.207059e-16	0.5567093
7.050432073161058e-10	2.4032802e-09	5.432072e-10	0.44748235	-1.207059e-16	0.55670977
7.077343261900235e-10	2.633732e-09	1.6460824e-10	0.44748235	-1.207059e-16	0.5567101
7.10126488218633e-10	2.1069855e-09	4.938247e-10	0.44748238	-1.207059e-16	0.5567099
7.125182449863765e-10	2.3045155e-09	3.7859896e-10	0.44748235	-1.207059e-16	0.5567099
7.152095777637189e-10	2.617271e-09	5.2674637e-10	0.44748235	-1.207059e-16	0.5567099
7.176015003611474e-10	2.3045155e-09	2.3045155e-10	0.44748235	-1.207059e-16	0.5567103
7.202927735936914e-10	2.6666536e-09	7.2427625e-10	0.44748235	-1.207059e-16	0.55670977
7.226847083238863e-10	2.6008102e-09	6.58433e-10	0.44748235	-1.207059e-16	0.5567099
7.250768586975931e-10	2.2057505e-09	3.292165e-10	0.44748238	-1.207059e-16	0.5567101
7.277678834679288e-10	2.0740638e-09	3.2921648e-11	0.44748235	-1.207059e-16	0.5567104
7.301601221120625e-10	2.3045155e-09	1.975299e-10	0.44748235	-1.207059e-16	0.55671054
7.325520756370723e-10	2.3045155e-09	1.3168659e-10	0.44748235	-1.207059e-16	0.55671084
7.35243153900978e-10	2.353898e-09	-9.876495e-11	0.44748235	-1.207059e-16	0.55671
7.3763501338031e-10	2.1645985e-09	3.292165e-10	0.44748235	-1.207059e-16	0.5567101
7.400268706833975e-10	2.3045155e-09	2.6337318e-10	0.44748238	-1.207059e-16	0.5567099
7.427179627509293e-10	2.2386721e-09	-2.6337318e-10	0.44748235	-1.207059e-16	0.5567107
7.451097488827546e-10	2.3209763e-09	1.975299e-10	0.44748235	-1.207059e-16	0.5567107
7.475018971153403e-10	2.732497e-09	-4.9382474e-11	0.44748235	-1.207059e-16	0.5567103
7.501927145329592e-10	2.419741e-09	2.3045155e-10	0.44748235	-1.207059e-16	0.55670977
7.525847070317032e-10	2.534967e-09	1.3168659e-10	0.44748235	-1.207059e-16	0.55670965
7.552756443126845e-10	2.3703588e-09	3.950598e-10	0.44748235	-1.207059e-16	0.55671066
7.576675106610825e-10	2.3374371e-09	-6.5843296e-11	0.44748235	-1.207059e-16	0.5567103
7.600594921917131e-10	2.5020452e-09	-6.5843296e-11	0.44748235	-1.207059e-16	0.5567102
7.6275042734283e-10	2.897105e-09	4.2798143e-10	0.44748235	-1.207059e-16	0.5567094
7.651422615914545e-10	2.7489577e-09	8.888845e-10	0.44748235	-1.207059e-16	0.5567092
7.675344220558797e-10	2.9135658e-09	3.292165e-10	0.44748238	-1.207059e-16	0.55670965
7.702250955597596e-10	2.6831144e-09	6.9135464e-10	0.44748238	-1.207059e-16	0.5567101
7.726173060610559e-10	2.534967e-09	7.2427625e-10	0.44748235	-1.207059e-16	0.5567101
7.750090786249155e-10	2.3045155e-09	3.292165e-10	0.44748235	-1.207059e-16	0.55670977
7.777000497481882e-10	2.3703588e-09	-1.975299e-10	0.44748238	-1.207059e-16	0.55671
7.800920526329163e-10	2.2715938e-09	-1.3168659e-10	0.44748235	-1.207059e-16	0.5567102
7.827830266568678e-10	2.3374371e-09	2.3045155e-10	0.44748238	-1.207059e-16	0.55670965
7.851750020912937e-10	2.6008102e-09	6.9135464e-10	0.44748238	-1.207059e-16	0.55671
7.875667964403205e-10	2.2715938e-09	6.9135464e-10	0.44748235	-1.207059e-16	0.55671
7.902579225895473e-10	2.3045155e-09	1.0534927e-09	0.44748235	-1.207059e-16	0.5567104
7.926496250515609e-10	2.4032802e-09	1.975299e-10	0.44748235	-1.207059e-16	0.55671066
7.950417637200824e-10	2.1728288e-09	2.3045155e-10	0.44748235	-1.207059e-16	0.5567107
7.97732676953064e-10	2.5596583e-09	9.876495e-11	0.44748235	-1.207059e-16	0.55671
8.001245717075545e-10	2.6831144e-09	2.6337318e-10	0.44748235	-1.207059e-16	0.5567102
8.025165935819284e-10	2.3374371e-09	-3.292165e-10	0.44748235	-1.207059e-16	0.55671
8.052074839061702e-10	2.3868196e-09	-2.1399071e-10	0.44748235	-1.207059e-16	0.55671096
8.075995755005436e-10	2.3209763e-09	2.1399071e-10	0.44748235	-1.207059e-16	0.55671066
8.102903636806407e-10	2.353898e-09	5.2674637e-10	0.44748235	-1.207059e-16	0.5567101
8.126825245166564e-10	2.5020452e-09	3.6213813e-10	0.44748238	-1.207059e-16	0.5567099
8.150742840030994e-10	2.4526627e-09	2.9629485e-10	0.44748235	-1.207059e-16	0.55670965
8.177653030175239e-10	2.5020452e-09	7.2427625e-10	0.44748235	-1.207059e-16	0.55671066
8.201570970988626e-10	2.617271e-09	6.5843296e-11	0.44748235	-1.207059e-16	0.5567104
8.225490406121812e-10	2.5020452e-09	9.876494e-10	0.44748235	-1.207059e-16	0.55671
8.252401310919161e-10	2.2057505e-09	2.6337318e-10	0.44748235	-1.207059e-16	0.55670965
8.276319128601326e-10	2.0905246e-09	9.218062e-10	0.44748235	-1.207059e-16	0.5567093
8.300240502691648e-10	2.1069855e-09	9.876495e-11	0.44748235	-1.207059e-16	0.5567094
8.327147878434482e-10	2.0082205e-09	2.6337318e-10	0.44748235	-1.207059e-16	0.5567101
8.35106986288052e-10	2.518506e-09	1.4814742e-10	0.44748235	-1.207059e-16	0.55671
8.377977479525818e-10	2.0493727e-09	5.5966803e-10	0.44748235	-1.207059e-16	0.5567094
8.40189872282013e-10	2.0411421e-09	-2.3045155e-10	0.44748235	-1.207059e-16	0.55670947
8.425816847716997e-10	2.057603e-09	2.9629485e-10	0.44748235	-1.207059e-16	0.5567101
8.452728263953903e-10	2.1234463e-09	1.975299e-10	0.44748235	-1.207059e-16	0.55671
8.476647086075721e-10	2.2715938e-09	2.3045155e-10	0.44748238	-1.207059e-16	0.55670977
8.500566955191353e-10	2.2057505e-09	5.5966803e-10	0.44748235	-1.207059e-16	0.5567099
8.527475376011278e-10	2.436202e-09	1.3168659e-10	0.44748235	-1.207059e-16	0.5567101
8.5513965202741e-10	2.4691236e-09	0	0.44748235	-1.207059e-16	0.5567104
8.575316192986442e-10	2.1728288e-09	1.1028752e-09	0.44748235	-1.207059e-16	0.5567107
8.602223943411532e-10	2.353898e-09	6.58433e-10	0.44748235	-1.207059e-16	0.55671
8.626143865852559e-10	2.5514277e-09	3.6213813e-10	0.44748238	-1.207059e-16	0.55671
8.65006493706496e-10	2.1810591e-09	2.6337318e-10	0.44748238	-1.207059e-16	0.55671
8.67697477168739e-10	2.2633633e-09	5.2674637e-10	0.44748235	-1.207059e-16	0.55671054
8.700892574604212e-10	2.5678886e-09	1.3168659e-10	0.44748235	-1.207059e-16	0.55671096
8.727803333981551e-10	2.353898e-09	5.432072e-10	0.44748235	-1.207059e-16	0.5567099
8.751721932502249e-10	2.4032802e-09	5.925897e-10	0.44748235	-1.207059e-16	0.55671
8.775641737636247e-10	2.255133e-09	3.950598e-10	0.44748235	-1.207059e-16	0.55670977
8.802549818126359e-10	2.2057505e-09	7.2427625e-10	0.44748235	-1.207059e-16	0.5567107
8.826470544531312e-10	2.0411421e-09	4.609031e-10	0.44748235	-1.207059e-16	0.55671066