# t (s)	mx ()	my ()	mz ()	E_total (J)	MaxAngle (rad)
0	1.1892946e-09	4.2798143e-10	0.9795362	-2.072577e-17	0.2662736
2.5121545661086774e-12	8.888845e-10	2.6337318e-10	0.98636115	-2.0726797e-17	0.32793117
5.036812283456212e-12	1.1028752e-09	3.292165e-10	0.9896669	-2.0714791e-17	0.4322531
7.508888401307808e-12	7.571979e-10	4.4444226e-10	0.9911751	-2.070435e-17	0.5729719
1.0029854367525164e-11	5.2674637e-10	5.2674637e-10	0.99190915	-2.069845e-17	0.7111348
1.2500845848959148e-11	4.609031e-10	3.7859896e-10	0.99233943	-2.0696886e-17	0.85144377
1.5020343679500036e-11	6.748938e-10	-1.4814742e-10	0.9927585	-2.0699646e-17	1.0619185
1.7542087263069224e-11	-8.230412e-11	2.1069855e-09	0.99396706	-2.0965669e-17	0.0888051
2.001670169696593e-11	3.4979253e-10	5.2674637e-10	0.9942551	-2.1006227e-17	0.08881182
2.2542156419050433e-11	8.662509e-10	7.901196e-10	0.9942895	-2.1007569e-17	0.08880913
2.5014467006412032e-11	9.79419e-10	6.58433e-10	0.99429446	-2.100765e-17	0.08880375
2.7534755447491062e-11	6.625482e-10	3.950598e-10	0.9942876	-2.1007658e-17	0.08880644
3.000518967697639e-11	1.1522577e-10	3.950598e-10	0.9942793	-2.1007658e-17	0.0888051
3.2524747729000576e-11	-2.8806443e-11	0	0.994275	-2.1007658e-17	0.08880241
3.504411634524427e-11	1.2757138e-10	-9.218062e-10	0.9942759	-2.1007656e-17	0.08880174
3.7513984750293574e-11	7.757163e-10	-7.901196e-10	0.9942787	-2.1007656e-17	0.08880241
4.003319725623165e-11	9.341518e-10	-2.6337318e-10	0.99428105	-2.1007658e-17	0.08880241
4.2502962003842706e-11	1.9218012e-09	7.571979e-10	0.9942818	-2.1007658e-17	0.08880174
4.5022082201151e-11	2.4691235e-10	1.3168659e-10	0.99428093	-2.1007655e-17	0.08880241
4.7541172407177914e-11	-3.6213813e-10	-1.1851794e-09	0.99428	-2.1007658e-17	0.08880241
5.001085997089414e-11	6.9135464e-10	-2.1069855e-09	0.9942795	-2.1007656e-17	0.08880174
5.2529898427446e-11	2.518506e-09	-2.6337318e-10	0.9942794	-2.1007656e-17	0.08880174
5.5048886252003375e-11	2.576119e-09	1.4156308e-09	0.9942798	-2.1007656e-17	0.08880174
5.7518463297803584e-11	1.6543128e-09	2.2386721e-09	0.99428004	-2.1007656e-17	0.08880174
6.003723248627416e-11	8.1481083e-10	2.1069855e-09	0.9942802	-2.1007655e-17	0.08880174
6.25066121162886e-11	-2.5514277e-10	1.4485525e-09	0.9942801	-2.1007658e-17	0.08880241
6.502536641448607e-11	-7.6542833e-10	0	0.99428004	-2.1007656e-17	0.08880174
6.754412500338621e-11	3.9094457e-11	-1.0534927e-09	0.9942799	-2.1007658e-17	0.08880174
7.001350509392435e-11	1.1851794e-09	-5.2674637e-10	0.99427986	-2.1007658e-17	0.08880241
7.253226782415616e-11	1.5802392e-09	5.2674637e-10	0.9942799	-2.1007658e-17	0.08880241
7.500163287514569e-11	1.0802416e-09	6.9135464e-10	0.99428	-2.1007658e-17	0.08880241
7.752039681726781e-11	8.312716e-10	7.901196e-10	0.99428004	-2.1007656e-17	0.08880174
8.003916176673992e-11	6.831242e-10	8.5596286e-10	0.99428004	-2.1007656e-17	0.08880174
8.25085151984254e-11	5.164584e-10	1.0534927e-09	0.99428	-2.1007658e-17	0.08880174
8.502727992931807e-11	7.8188916e-10	3.950598e-10	0.99428004	-2.1007658e-17	0.08880241
8.754604463797515e-11	6.666634e-10	1.3168659e-10	0.99428004	-2.1007658e-17	0.08880174
9.001540836495634e-11	9.79419e-10	2.6337318e-10	0.99428004	-2.1007658e-17	0.08880174
9.253416712309552e-11	4.588455e-10	5.2674637e-10	0.99428	-2.1007658e-17	0.08880241
9.50035267836294e-11	-4.115206e-11	3.950598e-10	0.99428004	-2.1007655e-17	0.08880174
9.752228097991605e-11	4.9382474e-11	0	0.99428004	-2.1007658e-17	0.08880241
1.0004104735088571e-10	6.9958506e-10	-1.3168659e-10	0.99428004	-2.1007655e-17	0.08880174
1.0251040794964427e-10	1.0205711e-09	1.3168659e-10	0.99428	-2.1007658e-17	0.08880241
1.0502917596375247e-10	6.4197214e-10	3.950598e-10	0.99428004	-2.1007658e-17	0.08880174
1.0754793389537576e-10	9.38267e-10	2.6337318e-10	0.9942799	-2.1007658e-17	0.08880241
1.1001729116626496e-10	4.588455e-10	3.950598e-10	0.99428	-2.1007655e-17	0.08880241
1.1253604220204522e-10	3.9094458e-10	2.6337318e-10	0.99428004	-2.1007658e-17	0.08880241
1.1500541244845238e-10	4.938247e-10	1.3168659e-10	0.99428	-2.1007658e-17	0.08880241
1.1752416796443015e-10	9.876494e-10	3.950598e-10	0.9942799	-2.1007658e-17	0.08880107
1.2004292941289892e-10	7.2839146e-10	6.58433e-10	0.99428004	-2.1007658e-17	0.08880241
1.2251228160595603e-10	6.5431777e-10	3.950598e-10	0.99428	-2.1007658e-17	0.08880241
1.2503104111359127e-10	7.7983153e-10	3.950598e-10	0.99428004	-2.1007658e-17	0.08880174
1.275004031380602e-10	8.065804e-10	0	0.99428004	-2.1007658e-17	0.08880174
1.3001915274053381e-10	8.1481083e-10	0	0.99428004	-2.1007656e-17	0.08880241
1.3253790622927532e-10	8.024652e-10	3.950598e-10	0.99428004	-2.1007658e-17	0.08880174
1.350072696539894e-10	2.8600683e-10	3.950598e-10	0.99428004	-2.1007658e-17	0.08880174
1.37526020659765e-10	4.979399e-10	-1.3168659e-10	0.99428004	-2.1007658e-17	0.08880241
1.400447715773913e-10	9.464974e-10	-1.3168659e-10	0.99428004	-2.1007658e-17	0.08880241
1.4251412404327156e-10	1.2222162e-09	1.3168659e-10	0.99428004	-2.1007658e-17	0.08880174
1.4503288193638274e-10	9.423822e-10	7.901196e-10	0.99428004	-2.1007658e-17	0.08880174
1.475022357928745e-10	4.19751e-10	6.58433e-10	0.99428004	-2.1007658e-17	0.08880241
1.500209847726308e-10	3.7036854e-10	3.950598e-10	0.99428	-2.1007658e-17	0.08880174
1.5253973335524483e-10	4.2180862e-10	3.950598e-10	0.99428004	-2.1007658e-17	0.08880241
1.550090795522859e-10	4.4444226e-10	-1.3168659e-10	0.99428	-2.1007658e-17	0.08880174
1.5752781735766424e-10	6.028777e-10	-1.3168659e-10	0.99428	-2.1007658e-17	0.08880107
1.6004656442583288e-10	7.613131e-10	1.3168659e-10	0.99428	-2.1007658e-17	0.08880241
1.6251591993397366e-10	8.5184765e-10	5.2674637e-10	0.99428004	-2.1007658e-17	0.08880241
1.650346663740474e-10	4.6501827e-10	2.6337318e-10	0.99428	-2.1007656e-17	0.08880241
1.6750401361607507e-10	4.979399e-10	1.3168659e-10	0.99428004	-2.1007658e-17	0.08880174
1.7002266653439673e-10	5.1851595e-10	-2.6337318e-10	0.99428004	-2.1007658e-17	0.08880174
1.7254133323200795e-10	9.506126e-10	1.3168659e-10	0.99428004	-2.1007658e-17	0.08880174
1.7501060410989222e-10	8.6007806e-10	4.938247e-10	0.99428004	-2.1007658e-17	0.08880174
1.775292734740416e-10	4.032902e-10	6.58433e-10	0.99428	-2.100766e-17	0.08880241
1.800479304999465e-10	-1.1522577e-10	6.58433e-10	0.99428	-2.1007658e-17	0.08880174
1.8251720115305117e-10	1.5020502e-10	-2.6337318e-10	0.99428004	-2.1007656e-17	0.08880174
1.850358528204582e-10	7.078154e-10	-2.6337318e-10	0.99428004	-2.1007658e-17	0.08880107
1.8750512501585468e-10	5.349768e-10	0	0.99428	-2.1007658e-17	0.08880174
1.900237782187958e-10	9.032877e-10	1.3168659e-10	0.99428	-2.1007658e-17	0.08880107
1.9254243344422783e-10	5.432072e-10	5.2674637e-10	0.99428004	-2.1007658e-17	0.08880174
1.9501170597619177e-10	2.9629485e-10	4.609031e-10	0.99428004	-2.1007658e-17	0.08880241
1.975303630118123e-10	4.6296067e-10	1.975299e-10	0.99428004	-2.1007656e-17	0.08880174
2.0004899240495807e-10	5.514376e-10	1.975299e-10	0.99428004	-2.1007658e-17	0.08880241
2.025182534332321e-10	5.617256e-10	3.292165e-10	0.99428004	-2.1007658e-17	0.08880107
2.050368978734142e-10	1.0082255e-09	-2.6337318e-10	0.9942799	-2.1007658e-17	0.08880174
2.075061661640325e-10	1.218101e-09	2.6337318e-10	0.99428004	-2.1007658e-17	0.08880174
2.1002482403637316e-10	7.1604583e-10	1.3168659e-10	0.99428	-2.1007658e-17	0.08880174
2.1254347056962267e-10	8.4773244e-10	1.3168659e-10	0.99428	-2.1007658e-17	0.08880107
2.1501272685615574e-10	6.748938e-10	3.950598e-10	0.99428004	-2.1007658e-17	0.08880241
2.1753137064817767e-10	1.2551379e-09	5.925897e-10	0.99428004	-2.1007658e-17	0.08880241
2.2000062390066563e-10	9.670734e-10	9.218062e-10	0.99428	-2.1007658e-17	0.08880241
2.22519279929705e-10	7.901196e-10	3.950598e-10	0.99428004	-2.1007658e-17	0.08880174
2.250379257943605e-10	7.119306e-10	6.58433e-10	0.99428	-2.1007658e-17	0.08880241
2.275071959968383e-10	6.0082006e-10	6.58433e-10	0.99428	-2.1007658e-17	0.08880174
2.300258329980118e-10	2.8806443e-10	3.950598e-10	0.99428004	-2.1007658e-17	0.08880174
2.3254446150494503e-10	6.4608735e-10	1.3168659e-10	0.99428004	-2.1007658e-17	0.08880174
2.350137279093763e-10	8.888845e-10	0	0.99428	-2.1007658e-17	0.08880241
2.3753237613884385e-10	9.711887e-10	-1.3168659e-10	0.99428	-2.1007658e-17	0.08880174
2.4000164371828735e-10	8.4773244e-10	2.6337318e-10	0.9942799	-2.1007658e-17	0.08880241
2.4252029262940725e-10	7.571979e-10	5.925897e-10	0.99428004	-2.1007658e-17	0.08880241
2.4503892628958195e-10	3.7859896e-10	6.58433e-10	0.99428004	-2.1007658e-17	0.08880241
2.4750818343158334e-10	1.3991701e-10	6.58433e-10	0.9942799	-2.1007658e-17	0.08880241
2.5002683399948713e-10	4.8147913e-10	1.3168659e-10	0.99428004	-2.1007658e-17	0.08880174
2.525454725186924e-10	9.38267e-10	-3.950598e-10	0.99428	-2.1007656e-17	0.08880174
2.550147306340877e-10	1.0452623e-09	5.925897e-10	0.9942799	-2.100766e-17	0.08880241
2.575333828803041e-10	6.9958506e-10	1.3168659e-10	0.99428	-2.1007658e-17	0.08880241
2.60002623962632e-10	4.5267268e-10	6.58433e-10	0.9942799	-2.1007658e-17	0.08880174
2.625212844936305e-10	1.337442e-10	2.6337318e-10	0.99428004	-2.1007658e-17	0.08880174
2.650399290251863e-10	5.925897e-10	0	0.99428004	-2.1007658e-17	0.08880174
2.67509183148263e-10	7.571979e-10	2.6337318e-10	0.99428004	-2.1007658e-17	0.08880174
2.700278272292759e-10	1.2510226e-09	1.3168659e-10	0.99428	-2.1007658e-17	0.08880174
2.725464670463246e-10	1.2510226e-09	3.950598e-10	0.99428004	-2.1007658e-17	0.08880241
2.7501572534388393e-10	6.4197214e-10	5.2674637e-10	0.99428004	-2.1007658e-17	0.08880241
2.775343798847658e-10	1.995875e-10	7.901196e-10	0.99428	-2.1007658e-17	0.08880174
2.800036503769796e-10	2.5514277e-10	6.5843296e-11	0.99428004	-2.1007658e-17	0.08880308
2.8252228527919917e-10	6.9546985e-10	1.3168659e-10	0.99428	-2.1007656e-17	0.08880174
2.850409389200027e-10	8.312716e-10	0	0.99428004	-2.1007658e-17	0.08880241
2.8751018631538134e-10	9.444397e-10	0	0.99428	-2.1007658e-17	0.08880107
2.900288414666175e-10	1.0946448e-09	3.950598e-10	0.99428	-2.1007658e-17	0.08880241
2.925474815564528e-10	6.4197214e-10	2.6337318e-10	0.99428004	-2.1007658e-17	0.08880241
2.95016730622509e-10	7.2427625e-10	2.6337318e-10	0.99428	-2.1007658e-17	0.08880241
2.9753538578361514e-10	5.1440074e-10	1.3168659e-10	0.99428004	-2.1007658e-17	0.08880107
3.000046555674225e-10	5.2674637e-10	2.6337318e-10	0.99428	-2.1007658e-17	0.08880308
3.025232822629513e-10	6.748938e-10	-2.6337318e-10	0.99428004	-2.1007658e-17	0.08880107
3.0504192803131855e-10	8.230412e-10	0	0.99428	-2.1007658e-17	0.08880174
3.0751118597931423e-10	9.0534535e-10	2.6337318e-10	0.9942799	-2.1007656e-17	0.08880308
3.1002983969157803e-10	9.3003655e-10	3.292165e-10	0.99428004	-2.1007656e-17	0.08880174
3.1254849299851304e-10	5.0617033e-10	5.2674637e-10	0.99428004	-2.1007658e-17	0.08880241
3.1501775223483e-10	5.6789845e-10	5.2674637e-10	0.99428	-2.1007656e-17	0.08880107
3.1753639559437527e-10	6.0082006e-10	5.2674637e-10	0.99428004	-2.1007658e-17	0.08880241
3.200056588085076e-10	6.090505e-10	3.950598e-10	0.99428004	-2.1007658e-17	0.08880241
3.2252428891274147e-10	5.925897e-10	2.6337318e-10	0.99428	-2.1007658e-17	0.08880174
3.2504292635506556e-10	3.539077e-10	3.950598e-10	0.99428	-2.1007658e-17	0.08880174
3.2751218949058803e-10	4.115206e-10	2.6337318e-10	0.99428004	-2.1007656e-17	0.08880241
3.3003082982967097e-10	5.020551e-10	1.3168659e-10	0.99428004	-2.1007658e-17	0.08880107
3.3250008578546285e-10	1.0041102e-09	9.876495e-11	0.99428004	-2.1007658e-17	0.08880241
3.3501873078272676e-10	1.1152208e-09	2.6337318e-10	0.9942799	-2.1007658e-17	0.08880174
3.3753738329204206e-10	6.172809e-10	5.2674637e-10	0.99428	-2.1007658e-17	0.08880241
3.4000663779264317e-10	6.79009e-10	3.950598e-10	0.99428004	-2.1007658e-17	0.08880107
3.4252528251172294e-10	1.0020527e-09	6.58433e-10	0.99428004	-2.1007656e-17	0.08880241
3.4504392094724114e-10	6.58433e-10	9.218062e-10	0.99428004	-2.1007658e-17	0.08880174
3.475131858864892e-10	2.3045155e-10	1.3168659e-10	0.99428	-2.1007656e-17	0.08880174
3.5003182433084955e-10	7.407371e-10	-1.3168659e-10	0.99428004	-2.1007658e-17	0.08880174
3.525010973913765e-10	9.218062e-10	5.2674637e-10	0.99428004	-2.1007658e-17	0.08880174
3.5501974264644434e-10	1.0534927e-09	2.6337318e-10	0.99428	-2.1007658e-17	0.08880241
3.575383732231243e-10	9.464974e-10	2.6337318e-10	0.99428004	-2.1007656e-17	0.08880241
3.600076256378752e-10	9.711887e-10	5.2674637e-10	0.99428	-2.1007658e-17	0.08880241
3.625262713014846e-10	2.2633634e-10	9.218062e-10	0.99428004	-2.1007656e-17	0.08880241
3.6504492532404525e-10	3.7859896e-10	5.2674637e-10	0.99428004	-2.1007656e-17	0.08880174
3.675141848181952e-10	2.716036e-10	-1.3168659e-10	0.99428	-2.1007658e-17	0.08880241
3.700328333312093e-10	9.835343e-10	0	0.99428004	-2.1007658e-17	0.08880174
3.725020799602268e-10	1.2222162e-09	5.2674637e-10	0.99428	-2.1007658e-17	0.08880241
3.7502072716794804e-10	7.613131e-10	3.950598e-10	0.9942799	-2.1007658e-17	0.08880174
3.77539365327559e-10	7.901196e-10	-1.3168659e-10	0.99428	-2.1007658e-17	0.08880174
3.8000863184983575e-10	7.9217716e-10	2.6337318e-10	0.99428004	-2.1007658e-17	0.08880174
3.825272669038013e-10	6.79009e-10	5.5966803e-10	0.99428004	-2.1007658e-17	0.08880174
3.8504591251707613e-10	5.6378324e-10	5.2674637e-10	0.99428004	-2.1007658e-17	0.08880241
3.8751516924256334e-10	5.843593e-10	3.950598e-10	0.99428004	-2.1007656e-17	0.08880241
3.9003381799569997e-10	5.5966803e-10	2.6337318e-10	0.99428004	-2.1007656e-17	0.08880241
3.9250308014685724e-10	2.9629485e-10	6.58433e-10	0.99428	-2.1007658e-17	0.08880174
3.950217225136507e-10	2.5514277e-10	-6.5843296e-11	0.99428	-2.1007658e-17	0.08880308
3.9754036330864475e-10	9.876494e-10	-5.2674637e-10	0.99428004	-2.1007658e-17	0.08880174
4.000096172214464e-10	1.3333268e-09	2.6337318e-10	0.99428004	-2.1007658e-17	0.08880241
4.025282613083486e-10	1.3991701e-09	7.901196e-10	0.99428004	-2.1007656e-17	0.08880308
4.0504690846025416e-10	9.629583e-10	7.901196e-10	0.99428004	-2.1007658e-17	0.08880174
4.0751615955847065e-10	4.8147913e-10	3.950598e-10	0.99428004	-2.1007658e-17	0.08880174
4.1003481130420787e-10	5.617256e-10	2.6337318e-10	0.99428004	-2.1007656e-17	0.08880174
4.125040601156617e-10	5.432072e-10	5.2674637e-10	0.99428004	-2.1007658e-17	0.08880241
4.1502270386728253e-10	3.1275565e-10	1.3168659e-10	0.99428004	-2.1007658e-17	0.08880174
4.175413396744942e-10	3.7859896e-10	1.3168659e-10	0.99428	-2.1007658e-17	0.08880174
4.2001060336018303e-10	8.1481083e-10	1.3168659e-10	0.99428004	-2.1007658e-17	0.08880174
4.225292398534872e-10	8.5184765e-10	0	0.99428004	-2.1007658e-17	0.08880241
4.250478911989669e-10	1.0061679e-09	5.2674637e-10	0.99428004	-2.100766e-17	0.08880241
4.2751713349805254e-10	6.666634e-10	5.925897e-10	0.99428	-2.1007658e-17	0.08880174
4.3003577904257165e-10	4.5267268e-10	5.2674637e-10	0.99428	-2.1007656e-17	0.08880174
4.3250503802749045e-10	4.3621184e-10	4.938247e-10	0.99428	-2.1007656e-17	0.08880174
4.3502367537806657e-10	3.2098607e-10	3.950598e-10	0.99428	-2.1007658e-17	0.08880241
4.3754231764955436e-10	4.2180862e-10	1.3168659e-10	0.99428	-2.1007658e-17	0.08880174
4.400115819305062e-10	8.18926e-10	0	0.9942799	-2.1007658e-17	0.08880174
4.4253021928858654e-10	8.9711494e-10	3.950598e-10	0.99428004	-2.1007658e-17	0.08880241
4.450488529074879e-10	6.666634e-10	3.950598e-10	0.99428	-2.1007658e-17	0.08880174
4.475181102631119e-10	5.925897e-10	2.6337318e-10	0.99428004	-2.1007658e-17	0.08880174
4.500367502801553e-10	6.4197214e-10	5.2674637e-10	0.99428	-2.1007658e-17	0.08880174
4.5250600421601725e-10	8.312716e-10	5.2674637e-10	0.99428004	-2.1007658e-17	0.08880174
4.5502465139640054e-10	9.69131e-10	2.6337318e-10	0.99428004	-2.1007658e-17	0.08880174
4.575432890901354e-10	9.0534535e-10	6.58433e-10	0.99428004	-2.1007656e-17	0.08880241
4.600125362339416e-10	5.6789845e-10	1.3168659e-10	0.99428004	-2.1007658e-17	0.08880174
4.6253117004770846e-10	6.58433e-10	2.6337318e-10	0.99428004	-2.1007658e-17	0.08880174
4.6500042849624355e-10	6.4608735e-10	1.3168659e-10	0.99428004	-2.1007658e-17	0.08880174
4.675190738879235e-10	8.230412e-10	6.5843296e-11	0.99428004	-2.1007658e-17	0.08880174
4.700377027347912e-10	1.0329168e-09	3.950598e-10	0.99428	-2.1007658e-17	0.08880174
4.725069638149335e-10	9.1357577e-10	3.950598e-10	0.99428004	-2.1007656e-17	0.08880174
4.750256031756266e-10	5.308616e-10	6.58433e-10	0.99428004	-2.1007658e-17	0.08880174
4.775442399946035e-10	6.0082006e-10	3.950598e-10	0.99428	-2.1007658e-17	0.08880241
4.800135006953995e-10	7.860044e-10	2.6337318e-10	0.99428004	-2.1007656e-17	0.08880107
4.82532142268342e-10	7.407371e-10	6.5843296e-11	0.99428004	-2.1007658e-17	0.08880174
4.850013875078395e-10	9.711887e-10	-2.6337318e-10	0.99428004	-2.1007656e-17	0.08880174
4.875200201647097e-10	9.711887e-10	2.6337318e-10	0.99428004	-2.1007658e-17	0.08880174
4.900386477010424e-10	1.0288015e-09	2.6337318e-10	0.9942799	-2.1007658e-17	0.08880174
4.925079197279888e-10	1.0802416e-09	5.2674637e-10	0.99428004	-2.1007658e-17	0.08880174
4.950265612662522e-10	4.938247e-10	5.2674637e-10	0.99428004	-2.1007658e-17	0.08880107
4.975452000541247e-10	2.1399071e-10	3.950598e-10	0.99428	-2.1007656e-17	0.08880174
5.000144477484374e-10	3.7859896e-10	-3.2921648e-11	0.99428004	-2.1007658e-17	0.08880241
5.025330893799467e-10	6.9135464e-10	-1.3168659e-10	0.99428004	-2.1007658e-17	0.08880241
5.050023427549199e-10	3.8271417e-10	2.6337318e-10	0.9942799	-2.1007658e-17	0.08880241
5.075209885411513e-10	8.950573e-10	-1.3168659e-10	0.99428	-2.1007658e-17	0.08880241
5.100396246442262e-10	8.065804e-10	2.6337318e-10	0.99428004	-2.1007658e-17	0.08880174
5.125088642502416e-10	9.629583e-10	3.950598e-10	0.9942799	-2.1007656e-17	0.08880174
5.150274927654114e-10	9.0946056e-10	3.950598e-10	0.99428	-2.1007658e-17	0.08880174
5.175461436419288e-10	7.2016104e-10	5.2674637e-10	0.99428004	-2.1007658e-17	0.08880174
5.200153990768806e-10	6.3579936e-10	5.2674637e-10	0.99428	-2.1007658e-17	0.08880174
5.225340353177037e-10	1.0452623e-09	7.901196e-10	0.99428004	-2.1007658e-17	0.08880174
5.25003284369408e-10	4.4444226e-10	5.2674637e-10	0.99428004	-2.1007658e-17	0.08880107
5.275219024645367e-10	3.2098607e-10	3.2921648e-11	0.99428004	-2.1007658e-17	0.08880241
5.300405561493169e-10	5.514376e-10	-2.6337318e-10	0.99428004	-2.1007658e-17	0.08880241
5.325098094604836e-10	6.58433e-10	2.6337318e-10	0.9942799	-2.1007658e-17	0.08880241
5.350284375340869e-10	8.4773244e-10	1.3168659e-10	0.99428004	-2.1007658e-17	0.08880174
5.37547071491159e-10	9.629583e-10	2.6337318e-10	0.99428004	-2.1007658e-17	0.08880241
5.400163164525148e-10	8.065804e-10	5.925897e-10	0.99428004	-2.1007656e-17	0.08880174
5.425349569869818e-10	8.724237e-10	3.950598e-10	0.99428004	-2.1007658e-17	0.08880174
5.450042136600863e-10	7.9835e-10	3.950598e-10	0.99428004	-2.1007656e-17	0.08880241
5.475228527404769e-10	2.8806443e-10	6.58433e-10	0.99428004	-2.1007658e-17	0.08880241
5.500415019990225e-10	2.3456675e-10	-3.950598e-10	0.99428004	-2.1007658e-17	0.08880241
5.525107506757068e-10	3.7859896e-10	-6.58433e-10	0.99428	-2.1007656e-17	0.08880308
5.550293874145291e-10	1.09876e-09	-2.6337318e-10	0.99428	-2.1007658e-17	0.08880174
5.575480216802828e-10	1.5720087e-09	2.6337318e-10	0.99428004	-2.1007656e-17	0.08880174
5.600172700163121e-10	1.4094581e-09	9.218062e-10	0.99428004	-2.1007656e-17	0.08880174
5.625358987280756e-10	1.0123407e-09	9.218062e-10	0.9942799	-2.1007658e-17	0.08880308
5.650051638170538e-10	4.773639e-10	5.2674637e-10	0.99428004	-2.1007658e-17	0.08880241
5.67523796110192e-10	2.4279717e-10	3.950598e-10	0.9942799	-2.1007656e-17	0.08880308
5.700424312215853e-10	3.6213813e-10	6.5843296e-11	0.99428004	-2.1007658e-17	0.08880174
5.725116697945501e-10	3.950598e-10	0	0.99428004	-2.1007658e-17	0.08880241
5.750303261783561e-10	6.5431777e-10	0	0.99428	-2.1007658e-17	0.08880241
5.775489480638549e-10	9.423822e-10	1.3168659e-10	0.99428004	-2.1007658e-17	0.08880241
5.800182153701929e-10	4.2798143e-10	5.2674637e-10	0.99428004	-2.1007658e-17	0.08880241
5.825368473319555e-10	4.19751e-10	0	0.99428	-2.1007658e-17	0.08880174
5.850060924511522e-10	9.218062e-10	2.6337318e-10	0.99428004	-2.1007658e-17	0.08880174
5.875247301724187e-10	1.057608e-09	6.58433e-10	0.99428004	-2.1007658e-17	0.08880174
5.900433575058692e-10	7.3250667e-10	4.609031e-10	0.9942799	-2.1007658e-17	0.08880174
5.925126137884123e-10	6.831242e-10	3.950598e-10	0.99428	-2.1007658e-17	0.08880308
5.950312524675727e-10	3.950598e-10	2.6337318e-10	0.99428	-2.1007658e-17	0.08880174
5.975005057586148e-10	5.2263116e-10	1.3168659e-10	0.99428004	-2.1007658e-17	0.08880174
6.000191382406279e-10	6.707786e-10	0	0.99428004	-2.1007658e-17	0.08880174
6.025377575477665e-10	6.58433e-10	-2.3045155e-10	0.99428	-2.1007656e-17	0.08880174
6.050070217211129e-10	1.1481425e-09	2.6337318e-10	0.99428004	-2.1007658e-17	0.08880241
6.075256535750912e-10	9.711887e-10	5.2674637e-10	0.99428004	-2.1007658e-17	0.08880174
6.100442842114005e-10	1.0390895e-09	7.901196e-10	0.99428	-2.1007658e-17	0.08880241
6.125135446766877e-10	6.831242e-10	1.0534927e-09	0.99428004	-2.1007658e-17	0.08880308
6.150321789671234e-10	2.9629485e-10	3.950598e-10	0.99428	-2.1007658e-17	0.08880174
6.17501427175556e-10	8.230412e-12	0	0.99428	-2.1007656e-17	0.08880107
6.200200638532021e-10	1.7283866e-10	3.950598e-10	0.99428004	-2.1007658e-17	0.08880174
6.225386912477731e-10	5.39092e-10	-2.6337318e-10	0.99428004	-2.1007658e-17	0.08880174
6.250079452053335e-10	8.847693e-10	1.3168659e-10	0.99428004	-2.1007658e-17	0.08880241
6.27526584617552e-10	8.888845e-10	3.950598e-10	0.99428004	-2.1007658e-17	0.08880174
6.300452218911002e-10	6.440298e-10	6.58433e-10	0.99428	-2.1007658e-17	0.08880241
6.325144741353404e-10	6.213961e-10	3.950598e-10	0.99428004	-2.1007658e-17	0.08880174
6.350330987357869e-10	6.3785693e-10	3.292165e-10	0.99428004	-2.1007658e-17	0.08880241
6.375023572134542e-10	8.4979007e-10	9.876495e-11	0.99428004	-2.1007658e-17	0.08880174
6.400209877699666e-10	9.38267e-10	0	0.99428004	-2.1007658e-17	0.08880241
6.425396189630134e-10	1.197525e-09	-2.6337318e-10	0.99428	-2.1007658e-17	0.08880241
6.45008868143947e-10	1.1049328e-09	6.5843296e-11	0.9942799	-2.1007658e-17	0.08880174
6.475275057359562e-10	1.0617232e-09	6.58433e-10	0.99428004	-2.1007656e-17	0.08880241
6.500461377492816e-10	7.7365875e-10	7.901196e-10	0.99428004	-2.1007658e-17	0.08880174
6.525153942363612e-10	3.7859896e-10	2.9629485e-10	0.99428004	-2.1007658e-17	0.08880241
6.550340235836273e-10	6.9958506e-10	1.3168659e-10	0.99428004	-2.1007656e-17	0.08880241
6.575032719469398e-10	8.312716e-10	2.9629485e-10	0.99428004	-2.1007658e-17	0.08880241
6.600219129732831e-10	8.312716e-10	3.950598e-10	0.99428004	-2.1007658e-17	0.08880174
6.625405512812977e-10	6.4197214e-10	7.901196e-10	0.99428004	-2.1007658e-17	0.08880241
6.650097863922773e-10	1.6460824e-10	6.58433e-10	0.99428004	-2.1007658e-17	0.08880174
6.675284333923539e-10	2.057603e-10	-1.975299e-10	0.99428004	-2.1007658e-17	0.08880241
6.700470667117185e-10	7.860044e-10	-3.950598e-10	0.99428	-2.1007658e-17	0.08880174
6.725163264911151e-10	1.2674835e-09	1.3168659e-10	0.99428	-2.1007658e-17	0.08880241
6.750349540804146e-10	1.1687186e-09	6.58433e-10	0.99428	-2.1007658e-17	0.08880107
6.775041914413035e-10	1.0617232e-09	3.950598e-10	0.99428004	-2.1007658e-17	0.08880241
6.800228212795101e-10	6.4608735e-10	4.2798143e-10	0.99428004	-2.1007658e-17	0.08880241
6.825414583615252e-10	8.312716e-10	5.2674637e-10	0.99428	-2.1007658e-17	0.08880107
6.850107200468647e-10	4.897095e-10	3.950598e-10	0.99428	-2.1007658e-17	0.08880174
6.875293490872787e-10	6.851818e-10	0	0.99428004	-2.1007658e-17	0.08880174
6.900479713487294e-10	8.39502e-10	5.2674637e-10	0.99428	-2.1007658e-17	0.08880174
6.925172342248215e-10	7.7777396e-10	2.6337318e-10	0.99428	-2.1007658e-17	0.08880241
6.950358514894813e-10	7.469099e-10	4.609031e-10	0.99428004	-2.1007658e-17	0.08880241
6.97505107197947e-10	4.4649986e-10	5.2674637e-10	0.99428004	-2.1007658e-17	0.08880174
7.000237336356287e-10	5.2263116e-10	2.6337318e-10	0.99428	-2.1007658e-17	0.08880174
7.025423697396435e-10	2.9629485e-10	0	0.99428004	-2.1007655e-17	0.08880241
7.050116248955844e-10	9.38267e-10	0	0.99428	-2.1007656e-17	0.08880174
7.075302547638467e-10	1.1481425e-09	3.950598e-10	0.99428004	-2.1007658e-17	0.08880174
7.100488970501967e-10	9.444397e-10	6.58433e-10	0.99428004	-2.1007658e-17	0.08880174
7.125181526459777e-10	7.6542833e-10	6.58433e-10	0.99428004	-2.1007658e-17	0.08880241
7.150367851703172e-10	6.4197214e-10	5.2674637e-10	0.99428004	-2.100766e-17	0.08880174
7.175060415802381e-10	5.6789845e-10	2.6337318e-10	0.9942799	-2.1007656e-17	0.08880241
7.20024664696564e-10	4.156358e-10	1.3168659e-10	0.99428	-2.1007655e-17	0.08880174
7.225432941095394e-10	8.765389e-10	-2.9629485e-10	0.99428004	-2.1007658e-17	0.08880241
7.250125454259878e-10	1.1316816e-09	3.950598e-10	0.99428004	-2.1007658e-17	0.08880174
7.275311742735482e-10	1.0205711e-09	6.58433e-10	0.99428	-2.1007658e-17	0.08880174
7.300004202003543e-10	1.0205711e-09	7.901196e-10	0.99428004	-2.1007656e-17	0.08880174
7.325190556055762e-10	4.938247e-10	6.58433e-10	0.99428004	-2.100766e-17	0.08880241
7.350376920590394e-10	2.8806443e-10	3.950598e-10	0.99428004	-2.1007658e-17	0.08880308
7.375069398288429e-10	3.8888698e-10	0	0.99428004	-2.1007656e-17	0.08880107
7.400255723493367e-10	5.967049e-10	2.6337318e-10	0.99428004	-2.1007658e-17	0.08880174
7.425442132409404e-10	7.6542833e-10	-1.3168659e-10	0.99428004	-2.1007658e-17	0.08880241
7.450134654349299e-10	8.806541e-10	3.950598e-10	0.99428004	-2.1007658e-17	0.08880174
7.475320838770445e-10	5.349768e-10	6.58433e-10	0.9942799	-2.1007658e-17	0.08880308
7.500013283865856e-10	3.99175e-10	2.6337318e-10	0.99428004	-2.1007658e-17	0.08880174
7.525199583671578e-10	3.7036854e-10	-2.6337318e-10	0.99428004	-2.1007658e-17	0.08880174
7.55038606112232e-10	8.024652e-10	1.3168659e-10	0.99428004	-2.1007658e-17	0.08880241
7.5750784980317e-10	7.2427625e-10	-1.3168659e-10	0.99428004	-2.1007658e-17	0.08880241
7.600264840992508e-10	6.9958506e-10	3.292165e-10	0.99428004	-2.1007658e-17	0.08880241
7.625451207331708e-10	4.691335e-10	0	0.99428004	-2.1007658e-17	0.08880241
7.650143621177158e-10	5.967049e-10	1.3168659e-10	0.99428004	-2.1007658e-17	0.08880174
7.675330059624242e-10	5.1851595e-10	0	0.9942799	-2.1007656e-17	0.08880241
7.700022496297458e-10	8.250988e-10	1.3168659e-10	0.99428	-2.1007658e-17	0.08880174
7.725208717725156e-10	3.539077e-10	2.6337318e-10	0.99428004	-2.1007658e-17	0.08880174
7.750394961010232e-10	8.312716e-10	-1.3168659e-10	0.99428004	-2.1007658e-17	0.08880241
7.775087456002994e-10	9.1357577e-10	2.6337318e-10	0.99428004	-2.1007658e-17	0.08880241
7.800273870741195e-10	7.366219e-10	3.950598e-10	0.99428004	-2.1007658e-17	0.08880241
7.825460150922582e-10	5.7201366e-10	5.2674637e-10	0.99428004	-2.1007658e-17	0.08880308
7.850152658502315e-10	6.172809e-10	0	0.9942799	-2.1007658e-17	0.08880241
7.875338832338939e-10	7.448523e-10	-6.5843296e-11	0.99428	-2.1007658e-17	0.08880241
7.900031343913082e-10	9.58843e-10	0	0.9942799	-2.1007658e-17	0.08880174
7.925217769205948e-10	1.2016401e-09	3.950598e-10	0.99428004	-2.1007658e-17	0.08880174
7.950403946617431e-10	6.255113e-10	1.3168659e-10	0.99428	-2.1007658e-17	0.08880174
7.975096482915295e-10	6.9135464e-10	5.2674637e-10	0.99428004	-2.1007656e-17	0.08880174
8.000282849468206e-10	4.3209664e-10	5.2674637e-10	0.99428004	-2.1007658e-17	0.08880174
8.025469131551914e-10	3.6008052e-10	2.6337318e-10	0.99428004	-2.1007658e-17	0.08880174
8.050161585282424e-10	7.5514034e-10	0	0.99428	-2.1007658e-17	0.08880241
8.075347985412465e-10	1.0041102e-09	1.3168659e-10	0.99428004	-2.1007658e-17	0.08880241
8.100040463786824e-10	1.0370319e-09	7.901196e-10	0.99428	-2.1007658e-17	0.08880174
8.125226698221952e-10	7.7365875e-10	1.975299e-10	0.99428004	-2.1007658e-17	0.08880107
8.150413059369533e-10	1.0123407e-09	1.3168659e-10	0.99428	-2.1007658e-17	0.08880241
8.17510547296347e-10	1.0452623e-09	1.3168659e-10	0.99428	-2.100766e-17	0.08880241
8.20029184799414e-10	9.341518e-10	2.6337318e-10	0.99428004	-2.1007658e-17	0.08880174
8.225478025896688e-10	7.078154e-10	1.3168659e-10	0.99428	-2.1007658e-17	0.08880241
8.250170536965876e-10	6.5020256e-10	3.292165e-10	0.99428004	-2.1007658e-17	0.08880241
8.275356809258872e-10	8.065804e-10	1.3168659e-10	0.99428	-2.100766e-17	0.08880174
8.300049350475666e-10	1.0534927e-09	-1.3168659e-10	0.99428004	-2.1007658e-17	0.08880241
8.325235777133246e-10	1.1357969e-09	2.6337318e-10	0.99428004	-2.1007658e-17	0.08880174
8.350422072157611e-10	9.0534535e-10	5.2674637e-10	0.99428	-2.1007658e-17	0.08880174
8.375114422593178e-10	6.296265e-10	1.0534927e-09	0.9942799	-2.1007658e-17	0.08880241
8.400300701200243e-10	1.1522577e-10	7.901196e-10	0.99428004	-2.1007658e-17	0.08880174
8.425486969724148e-10	2.4691235e-10	1.3168659e-10	0.99428004	-2.1007658e-17	0.08880241
8.450179492712829e-10	7.2016104e-10	0	0.99428	-2.1007658e-17	0.08880174
8.475365771365366e-10	7.9835e-10	0	0.99428004	-2.1007658e-17	0.08880174
8.500058325722656e-10	7.6542833e-10	2.6337318e-10	0.99428	-2.1007656e-17	0.08880241
8.525244617517636e-10	5.39092e-10	2.6337318e-10	0.99428004	-2.1007658e-17	0.08880174
8.550430852301047e-10	4.032902e-10	-2.6337318e-10	0.9942799	-2.1007658e-17	0.08880241
8.57512326597038e-10	7.7777396e-10	-1.3168659e-10	0.99428	-2.1007658e-17	0.08880241
8.600309713762203e-10	1.0370319e-09	3.950598e-10	0.99428004	-2.1007658e-17	0.08880174
8.625002155830235e-10	6.79009e-10	6.58433e-10	0.99428004	-2.1007658e-17	0.08880174
8.650188491983314e-10	5.802441e-10	2.6337318e-10	0.99428	-2.1007658e-17	0.08880308
8.675374687086064e-10	6.172809e-10	1.3168659e-10	0.99428004	-2.1007658e-17	0.08880174
8.700067146098132e-10	5.6789845e-10	9.876495e-11	0.99428	-2.1007658e-17	0.08880241
8.725253419119314e-10	4.6501827e-10	1.6460824e-10	0.99428004	-2.1007658e-17	0.08880174
8.750439726398118e-10	4.773639e-10	0	0.99428	-2.1007658e-17	0.08880107
8.775132243141877e-10	9.0534535e-10	-3.950598e-10	0.99428	-2.1007655e-17	0.08880241
8.800318449179833e-10	1.3004051e-09	0	0.99428004	-2.1007656e-17	0.08880107
8.825010902544088e-10	9.753038e-10	5.2674637e-10	0.99428004	-2.1007658e-17	0.08880174
8.850197185065873e-10	4.2386622e-10	3.950598e-10	0.9942799	-2.1007658e-17	0.08880241