# t (s)	mx ()	my ()	mz ()	E_total (J)	MaxAngle (rad)
0	-1.3724212e-09	-3.094635e-09	0.99555576	-1.2884941e-16	0.65495616
2.7437618038513407e-12	4.3456576e-09	-3.9505976e-09	0.9904054	-1.2860091e-16	0.5572381
5.204410724244512e-12	1.496289e-08	1.9094557e-09	0.98366946	-1.2780675e-16	0.5625146
7.746753800942139e-12	2.2979311e-08	3.0287918e-08	0.97359955	-1.2566773e-16	0.5827332
1.0063840779231029e-11	6.8312422e-09	3.535785e-08	0.9492537	-1.2257405e-16	0.4162582
1.2583427584967349e-11	-4.9777533e-08	4.5826933e-08	0.9006221	-1.2014977e-16	0.4749588
1.5259525509572627e-11	-7.133463e-07	-4.27323e-07	0.8393872	-1.1657994e-16	0.52672935
1.7593671596980103e-11	1.4814742e-07	-5.648433e-06	0.76284957	-1.1871581e-16	0.3067538
2.017781953986021e-11	2.4174828e-05	-3.447555e-06	0.65913194	-1.137508e-16	0.48884052
2.2591106481676284e-11	6.221915e-05	-1.45244385e-05	0.5683018	-9.5136094e-17	1.0624223
2.5038996435013225e-11	7.8059864e-05	-0.00014357292	0.48793948	-1.03893905e-16	1.071821
2.7645930572552593e-11	-4.7922393e-05	-0.0002133398	0.47637936	-1.10980586e-16	0.9199229
3.001281247145157e-11	-0.0001482022	-0.00023586449	0.48006225	-1.1408934e-16	0.87949824
3.2782355023739855e-11	-0.00019979438	-0.00024658334	0.48338872	-1.163268e-16	0.9036282
3.5235159029145886e-11	-0.00019956208	-0.00021272323	0.48237392	-1.1793344e-16	0.8755501
3.7616337028721165e-11	-0.000174751	-0.00014240273	0.4785599	-1.1912974e-16	0.80162245
4.002248090274784e-11	-0.00013475519	-7.305083e-05	0.47342587	-1.1987681e-16	0.7270625
4.27165588635207e-11	-9.236353e-05	-2.9888446e-05	0.467542	-1.202999e-16	0.6612163
4.5118702443094225e-11	-6.504238e-05	-1.6689828e-05	0.46273005	-1.2047925e-16	0.60702467
4.751606234360328e-11	-4.4902037e-05	-1.4583435e-05	0.45848244	-1.2057056e-16	0.58516526
5.0209925719251627e-11	-2.683602e-05	-1.5422607e-05	0.4543772	-1.2062343e-16	0.5756284
5.260428541274738e-11	-1.3930203e-05	-1.50313335e-05	0.45129	-1.2064804e-16	0.5705314
5.529891667369186e-11	-3.3938104e-06	-1.2540383e-05	0.44840053	-1.2066199e-16	0.5650011
5.7693082321871924e-11	2.3234784e-06	-9.4265215e-06	0.44630936	-1.2066698e-16	0.5605471
6.008720621908388e-11	5.2215873e-06	-6.509466e-06	0.4446247	-1.2066769e-16	0.5571794
6.278192537571719e-11	6.3381417e-06	-4.1154694e-06	0.44316143	-1.2066555e-16	0.5539837
6.517623593522599e-11	6.423919e-06	-2.7822744e-06	0.44219315	-1.2066229e-16	0.55219275
6.757166031144553e-11	6.227953e-06	-1.9092581e-06	0.44148716	-1.2065863e-16	0.5509207
7.026448439897228e-11	5.8906708e-06	-1.1351714e-06	0.44095337	-1.206546e-16	0.54984844
7.265936090763757e-11	5.4656193e-06	-4.916519e-07	0.44066653	-1.2065136e-16	0.54932284
7.50516612076304e-11	4.8770294e-06	9.1192966e-08	0.44051886	-1.206486e-16	0.54923743
7.774479453759754e-11	4.0458235e-06	5.851823e-07	0.44047806	-1.2064605e-16	0.54931784
8.013744012030677e-11	3.2484943e-06	8.2893416e-07	0.44052288	-1.2064429e-16	0.5494993
8.253112122359608e-11	2.4918725e-06	9.029421e-07	0.44062048	-1.2064297e-16	0.5497422
8.522297812577731e-11	1.764765e-06	8.498724e-07	0.4407705	-1.2064192e-16	0.5501278
8.761627379783304e-11	1.2460185e-06	7.44984e-07	0.44092268	-1.2064134e-16	0.55056363
9.000912528861425e-11	8.338395e-07	6.2788166e-07	0.44107988	-1.2064101e-16	0.55098504
9.270140857861942e-11	4.6801415e-07	4.9928974e-07	0.44125172	-1.2064089e-16	0.5514229
9.509440593969052e-11	2.125257e-07	3.9041782e-07	0.4413932	-1.2064094e-16	0.5517762
9.778660552233529e-11	-7.1604584e-09	2.7221265e-07	0.44153526	-1.2064113e-16	0.55212235
1.0017939200240741e-10	-1.4572768e-07	1.7359585e-07	0.44164422	-1.2064134e-16	0.55238223
1.0257249095149365e-10	-2.3515933e-07	8.5102464e-08	0.44173616	-1.2064162e-16	0.5525977
1.052644367864419e-10	-2.860068e-07	3.2592433e-09	0.44181976	-1.2064192e-16	0.5527897
1.0765729166129461e-10	-2.9697796e-07	-4.9909218e-08	0.44187748	-1.2064217e-16	0.5529202
1.1005033681758693e-10	-2.875377e-07	-8.543168e-08	0.44192135	-1.2064245e-16	0.5530169
1.1274225077175029e-10	-2.619411e-07	-1.05480964e-07	0.44195643	-1.2064272e-16	0.55309147
1.1513492336818052e-10	-2.328219e-07	-1.12954176e-07	0.44197693	-1.2064293e-16	0.55313104
1.1752773089393383e-10	-2.0055869e-07	-1.1153855e-07	0.4419894	-1.2064309e-16	0.55315167
1.2021955124671701e-10	-1.636206e-07	-1.0406533e-07	0.44199577	-1.2064325e-16	0.5531551
1.2261259455152277e-10	-1.3153844e-07	-9.33658e-08	0.44199634	-1.2064337e-16	0.5531457
1.2500499193358939e-10	-1.01711436e-07	-8.0592194e-08	0.44199356	-1.2064346e-16	0.5531274
1.276966322671727e-10	-7.229594e-08	-6.46252e-08	0.44198766	-1.2064354e-16	0.5531012
1.3008869516809154e-10	-5.0024447e-08	-5.0831026e-08	0.441981	-1.2064356e-16	0.5530724
1.3278018698343027e-10	-3.0831124e-08	-3.4880486e-08	0.44197285	-1.206436e-16	0.55303705
1.351720040022017e-10	-1.7152178e-08	-2.3242684e-08	0.4419655	-1.2064362e-16	0.553007
1.3756437060960305e-10	-7.0616935e-09	-1.3234502e-08	0.44195852	-1.2064363e-16	0.5529782
1.4025579245433703e-10	8.888845e-10	-3.358008e-09	0.44195133	-1.2064362e-16	0.5529488
1.4264783045102146e-10	5.9258967e-09	1.5473175e-09	0.4419457	-1.2064363e-16	0.55292445
1.4504021065902857e-10	9.2345225e-09	6.485565e-09	0.44194093	-1.2064362e-16	0.5529032
1.4773117541974314e-10	1.1226282e-08	1.05020055e-08	0.44193652	-1.2064359e-16	0.55288196
1.501235400387373e-10	1.1530807e-08	1.1917637e-08	0.4419334	-1.2064359e-16	0.552867
1.525156426225066e-10	1.14073515e-08	1.2905287e-08	0.44193098	-1.2064356e-16	0.5528547
1.5520699158045768e-10	1.0633692e-08	1.2905287e-08	0.44192898	-1.2064356e-16	0.5528445
1.575988392761468e-10	9.448513e-09	1.2246853e-08	0.4419278	-1.2064354e-16	0.55283713
1.6029031742243136e-10	7.99173e-09	1.0831222e-08	0.44192696	-1.2064354e-16	0.55283225
1.6268218316105773e-10	6.847703e-09	9.168679e-09	0.4419266	-1.2064354e-16	0.55282897
1.6507436973924815e-10	5.753058e-09	7.604901e-09	0.44192648	-1.2064354e-16	0.55282724
1.6776557289700164e-10	4.5267265e-09	6.2221917e-09	0.4419266	-1.2064352e-16	0.552826
1.7015771333387088e-10	3.9999803e-09	5.0205515e-09	0.44192684	-1.2064352e-16	0.55282664
1.7254989400965696e-10	3.555538e-09	3.8847547e-09	0.44192716	-1.2064352e-16	0.5528276
1.752409063520422e-10	3.0287917e-09	2.716036e-09	0.44192758	-1.2064351e-16	0.5528301
1.776333007597984e-10	2.6501927e-09	2.3045155e-09	0.44192794	-1.2064351e-16	0.5528319
1.8002499854999404e-10	2.115216e-09	1.0864144e-09	0.4419283	-1.206435e-16	0.5528335
1.8271649333653083e-10	1.4156308e-09	6.255113e-10	0.44192865	-1.2064351e-16	0.5528359
1.8510840704697224e-10	1.6954649e-09	4.938247e-10	0.44192895	-1.2064351e-16	0.55283797
1.8750062426412078e-10	1.6625432e-09	-6.5843296e-11	0.44192928	-1.2064351e-16	0.5528402
1.901916681878295e-10	1.5637783e-09	-1.3168659e-10	0.44192952	-1.206435e-16	0.5528418
1.925838733863974e-10	1.5802392e-09	-1.0041102e-09	0.44192967	-1.2064352e-16	0.55284345
1.9527491939355223e-10	1.777769e-09	-5.925897e-10	0.44192982	-1.2064351e-16	0.5528453
1.9766708369450353e-10	1.777769e-09	-7.901196e-10	0.4419299	-1.2064351e-16	0.5528467
2.0005920541579082e-10	1.9094557e-09	-4.2798143e-10	0.44193	-1.2064351e-16	0.5528477
2.0275038215843497e-10	2.0246813e-09	-6.58433e-10	0.44193003	-1.2064352e-16	0.5528486
2.051423285758831e-10	1.8929949e-09	-4.609031e-10	0.44193003	-1.2064352e-16	0.5528493
2.075343179656929e-10	2.296285e-09	2.3045155e-10	0.44193003	-1.2064351e-16	0.55285007
2.1022557673104815e-10	2.534967e-09	-1.6460824e-10	0.44193003	-1.2064351e-16	0.55285066
2.1261762159220561e-10	2.3703588e-09	7.078154e-10	0.44193	-1.2064351e-16	0.5528513
2.1500974803088245e-10	2.3374371e-09	1.0205711e-09	0.44193	-1.2064351e-16	0.5528513
2.1770078607404257e-10	2.0905246e-09	6.255113e-10	0.44193003	-1.2064351e-16	0.5528513
2.2009294175620957e-10	2.1399071e-09	5.5966803e-10	0.44193	-1.2064351e-16	0.5528512
2.2278404069461273e-10	1.8024603e-09	1.2510226e-09	0.44193	-1.2064351e-16	0.55285174
2.2517609192379856e-10	2.1399071e-09	1.0205711e-09	0.44192997	-1.2064351e-16	0.5528516
2.2756819862716586e-10	2.0740638e-09	9.218062e-10	0.44192994	-1.2064351e-16	0.5528515
2.302593818726955e-10	2.057603e-09	7.571979e-10	0.4419299	-1.2064351e-16	0.5528513
2.3265150553935865e-10	1.9259165e-09	1.218101e-09	0.44192985	-1.2064352e-16	0.5528511
2.350433953474691e-10	2.2386721e-09	4.938247e-10	0.44192985	-1.2064351e-16	0.5528511
2.377347741798552e-10	2.3045155e-09	5.2674637e-10	0.44192985	-1.2064351e-16	0.5528513
2.4012666854067016e-10	2.1892896e-09	7.901196e-10	0.44192985	-1.2064351e-16	0.5528511
2.4251885734145836e-10	2.4855844e-09	6.4197214e-10	0.44192985	-1.2064351e-16	0.55285096
2.4520982979436796e-10	2.534967e-09	1.218101e-09	0.44192985	-1.2064351e-16	0.5528508
2.4760211088448463e-10	2.279824e-09	1.1851794e-09	0.44192985	-1.2064351e-16	0.5528508
2.5029292998710104e-10	2.0411421e-09	9.218062e-10	0.44192985	-1.2064351e-16	0.55285096
2.526853148379983e-10	1.9752988e-09	7.2427625e-10	0.44192985	-1.2064351e-16	0.5528508
2.5507730706803006e-10	2.255133e-09	5.7612887e-10	0.44192985	-1.2064351e-16	0.5528511
2.577683595776868e-10	2.3374371e-09	1.0699536e-09	0.44192985	-1.2064351e-16	0.55285054
2.601604379489846e-10	2.255133e-09	9.547279e-10	0.44192985	-1.2064354e-16	0.5528508
2.6255249260644494e-10	1.958838e-09	1.0370319e-09	0.44192985	-1.2064351e-16	0.55285066
2.6524343552752643e-10	1.9423774e-09	7.571979e-10	0.44192985	-1.2064351e-16	0.5528508
2.676357254014935e-10	2.0246813e-09	9.876495e-11	0.44192985	-1.2064351e-16	0.55285084
2.700275268661433e-10	2.3868196e-09	4.938247e-10	0.44192985	-1.2064351e-16	0.55285084
2.7271878382837593e-10	2.6995752e-09	7.571979e-10	0.44192985	-1.2064351e-16	0.5528508
2.7511079811763527e-10	2.0246813e-09	4.2798143e-10	0.44192985	-1.2064351e-16	0.55285066
2.775029638276102e-10	2.2057505e-09	7.901196e-10	0.44192985	-1.2064352e-16	0.5528508
2.80193998978681e-10	2.534967e-09	6.58433e-10	0.44192985	-1.2064351e-16	0.55285066
2.825861367076627e-10	2.4032802e-09	7.901196e-10	0.44192985	-1.2064351e-16	0.55285037
2.8527716927057883e-10	2.6008102e-09	9.218062e-10	0.44192985	-1.2064351e-16	0.5528508
2.87669280716736e-10	2.4691236e-09	1.1193361e-09	0.44192985	-1.2064351e-16	0.5528508
2.900612603211475e-10	2.156368e-09	1.2510226e-09	0.44192985	-1.2064352e-16	0.5528508
2.9275243030980077e-10	2.3374371e-09	1.1687186e-09	0.44192985	-1.2064351e-16	0.55285054
2.951443675963733e-10	2.1234463e-09	6.58433e-10	0.44192985	-1.2064352e-16	0.55285054
2.975366608531689e-10	2.2222113e-09	1.0205711e-09	0.44192985	-1.2064351e-16	0.55285037
3.00227434405022e-10	2.1399071e-09	1.0534927e-09	0.44192985	-1.2064351e-16	0.5528508
3.026198048518073e-10	2.2222113e-09	9.218062e-10	0.44192985	-1.2064351e-16	0.55285066
3.050116106725459e-10	2.0411421e-09	9.876494e-10	0.44192985	-1.2064351e-16	0.55285066
3.07702983164863e-10	1.9259165e-09	7.901196e-10	0.44192985	-1.2064352e-16	0.55285054
3.100947293589533e-10	2.1069855e-09	5.5966803e-10	0.44192985	-1.2064351e-16	0.55285066
3.127861986978969e-10	2.2222113e-09	9.218062e-10	0.44192985	-1.2064352e-16	0.5528508
3.1517794758683794e-10	2.0740638e-09	9.218062e-10	0.44192985	-1.2064351e-16	0.55285066
3.175703168103769e-10	1.7448474e-09	8.230412e-10	0.44192985	-1.2064352e-16	0.55285054
3.202610950617811e-10	1.9835293e-09	4.2798143e-10	0.44192985	-1.2064351e-16	0.55285054
3.226533473812581e-10	1.777769e-09	3.6213813e-10	0.44192985	-1.2064351e-16	0.55285054
3.2504551439373426e-10	1.9423774e-09	5.5966803e-10	0.44192985	-1.2064352e-16	0.55285066
3.2773656960133877e-10	2.2386721e-09	7.2427625e-10	0.44192985	-1.2064351e-16	0.55285054
3.301285702856262e-10	2.378589e-09	4.938247e-10	0.44192985	-1.2064351e-16	0.55285066
3.3252047787732326e-10	2.0905246e-09	6.58433e-10	0.44192985	-1.2064351e-16	0.5528508
3.352118270993356e-10	2.0822943e-09	1.1851794e-09	0.44192985	-1.2064351e-16	0.55285054
3.376037245709689e-10	1.9094557e-09	3.950598e-10	0.44192985	-1.2064351e-16	0.5528508
3.4029479993161574e-10	1.8600731e-09	7.2427625e-10	0.44192985	-1.2064352e-16	0.55285084
3.426869971242565e-10	2.2386721e-09	1.1851794e-09	0.44192985	-1.2064351e-16	0.55285066
3.4507898160657853e-10	2.2304416e-09	8.888845e-10	0.44192985	-1.2064351e-16	0.55285066
3.4777005464690536e-10	2.1892896e-09	1.1851794e-09	0.44192985	-1.2064351e-16	0.5528508
3.5016207920759863e-10	1.679004e-09	7.2427625e-10	0.44192985	-1.2064352e-16	0.55285066
3.5255416122183614e-10	2.2139808e-09	6.255113e-10	0.44192985	-1.2064351e-16	0.55285054
3.5524526630994327e-10	1.958838e-09	9.876494e-10	0.44192985	-1.2064351e-16	0.55285066
3.5763736054623667e-10	2.2386721e-09	4.609031e-10	0.44192985	-1.2064351e-16	0.55285054
3.600294665422836e-10	2.3868196e-09	8.230412e-10	0.44192985	-1.2064351e-16	0.55285054
3.627204984036219e-10	2.5020452e-09	8.5596286e-10	0.44192985	-1.2064351e-16	0.55285054
3.6511277801804115e-10	2.1810591e-09	1.218101e-09	0.44192985	-1.2064351e-16	0.55285054
3.6750457537649263e-10	2.2715938e-09	4.609031e-10	0.44192985	-1.2064352e-16	0.55285054
3.701958183992773e-10	2.5020452e-09	2.6337318e-10	0.44192985	-1.2064351e-16	0.55285054
3.725877957502375e-10	2.5267366e-09	9.218062e-10	0.44192985	-1.2064352e-16	0.55285054
3.7527890292401644e-10	2.4691236e-09	1.0534927e-09	0.44192985	-1.2064352e-16	0.55285054
3.776709217910223e-10	2.3868196e-09	1.0534927e-09	0.44192985	-1.2064351e-16	0.55285037
3.800630240518057e-10	2.1316768e-09	1.0864144e-09	0.44192985	-1.2064352e-16	0.55285066
3.827542117098054e-10	2.419741e-09	1.1851794e-09	0.44192985	-1.2064351e-16	0.55285054
3.8514612497398224e-10	2.156368e-09	8.5596286e-10	0.44192985	-1.2064352e-16	0.55285054
3.8753813778699555e-10	2.0082205e-09	1.4814742e-09	0.44192985	-1.2064352e-16	0.55285054
3.9022957727433813e-10	1.8929949e-09	7.2427625e-10	0.44192985	-1.2064351e-16	0.55285054
3.9262139338916574e-10	1.8106907e-09	2.9629485e-10	0.44192985	-1.2064351e-16	0.55285054
3.9501332629785376e-10	2.0493727e-09	1.975299e-10	0.44192985	-1.2064351e-16	0.55285066
3.9770456281731604e-10	1.9423774e-09	5.2674637e-10	0.44192985	-1.2064351e-16	0.55285054
4.0009655597702216e-10	2.2222113e-09	1.6460824e-10	0.44192985	-1.2064351e-16	0.55285054
4.027875534432086e-10	2.0082205e-09	9.876494e-10	0.44192985	-1.2064352e-16	0.5528508
4.051797374030857e-10	1.9752988e-09	9.218062e-10	0.44192985	-1.2064351e-16	0.5528508
4.0757193129023263e-10	2.156368e-09	7.571979e-10	0.44192985	-1.2064351e-16	0.55285054
4.102629158022021e-10	2.1069855e-09	2.6337318e-10	0.44192985	-1.2064351e-16	0.5528508
4.1265503399157715e-10	2.2386721e-09	5.925897e-10	0.44192985	-1.2064352e-16	0.5528508
4.150469301763041e-10	2.2880546e-09	7.571979e-10	0.44192985	-1.2064351e-16	0.55285066
4.177380863671971e-10	2.0082205e-09	8.888845e-10	0.44192985	-1.2064351e-16	0.55285066
4.20130076204374e-10	2.436202e-09	9.876494e-10	0.44192985	-1.2064351e-16	0.55285066
4.2252238131039477e-10	2.115216e-09	1.1193361e-09	0.44192985	-1.2064351e-16	0.55285054
4.252132379279456e-10	2.1728288e-09	1.2510226e-09	0.44192985	-1.2064352e-16	0.55285066
4.276054674497745e-10	2.1892896e-09	9.876494e-10	0.44192985	-1.2064352e-16	0.55285066
4.3029641951558724e-10	2.2880546e-09	4.2798143e-10	0.44192985	-1.2064351e-16	0.55285054
4.3268848237230156e-10	2.2880546e-09	9.876494e-10	0.44192985	-1.2064352e-16	0.55285054
4.3508058860063333e-10	2.3045155e-09	8.888845e-10	0.44192985	-1.2064351e-16	0.55285037
4.3777163124863265e-10	2.057603e-09	1.316866e-09	0.44192985	-1.2064352e-16	0.55285066
4.4016377683165185e-10	2.0246813e-09	1.1193361e-09	0.44192985	-1.2064351e-16	0.55285054
4.425559587130093e-10	1.7283865e-09	1.0864144e-09	0.44192985	-1.2064351e-16	0.55285037
4.4524681581074135e-10	1.9094557e-09	5.925897e-10	0.44192985	-1.2064351e-16	0.55285037
4.476390708634093e-10	2.2222113e-09	7.2427625e-10	0.44192985	-1.2064352e-16	0.55285054
4.500308624102081e-10	2.3209763e-09	4.938247e-10	0.44192985	-1.2064352e-16	0.55285054
4.5272233224464016e-10	2.5514277e-09	5.925897e-10	0.44192985	-1.2064351e-16	0.55285066
4.5511385449031075e-10	2.4032802e-09	5.925897e-10	0.44192985	-1.2064351e-16	0.55285066
4.5750661360557193e-10	2.1892896e-09	1.0864144e-09	0.44192985	-1.2064351e-16	0.55285054
4.601970949638998e-10	2.3703588e-09	8.888845e-10	0.44192985	-1.2064351e-16	0.55285054
4.625897310456521e-10	2.0082205e-09	5.5966803e-10	0.44192985	-1.2064352e-16	0.55285037
4.652802892261333e-10	2.1069855e-09	1.1193361e-09	0.44192985	-1.2064352e-16	0.55285066
4.676728137872906e-10	1.8436124e-09	1.0864144e-09	0.44192985	-1.2064351e-16	0.55285037
4.700645379056561e-10	2.156368e-09	9.218062e-10	0.44192985	-1.2064354e-16	0.5528508
4.727559988643869e-10	2.0905246e-09	2.9629485e-10	0.44192985	-1.2064352e-16	0.55285066
4.751477035247166e-10	2.2715938e-09	6.58433e-10	0.44192985	-1.2064351e-16	0.5528508
4.775400520503604e-10	2.3127458e-09	7.901196e-10	0.44192985	-1.2064351e-16	0.55285054
4.802308827978786e-10	2.5020452e-09	9.547279e-10	0.44192985	-1.2064351e-16	0.5528508
4.826231442232061e-10	2.156368e-09	9.218062e-10	0.44192985	-1.2064351e-16	0.55285066
4.850151604394641e-10	2.2386721e-09	5.925897e-10	0.44192985	-1.2064351e-16	0.55285054
4.877061334475583e-10	2.5020452e-09	6.58433e-10	0.44192985	-1.2064351e-16	0.55285066
4.900983092073283e-10	2.353898e-09	6.9135464e-10	0.44192985	-1.2064351e-16	0.55285037
4.927893170481404e-10	2.3045155e-09	1.1193361e-09	0.44192985	-1.2064351e-16	0.55285054
4.951814713685336e-10	1.9752988e-09	1.0205711e-09	0.44192985	-1.2064351e-16	0.55285054
4.975734999500291e-10	2.2880546e-09	1.0205711e-09	0.44192985	-1.2064351e-16	0.55285054
5.002646871012545e-10	1.9094557e-09	1.1522577e-09	0.44192985	-1.2064351e-16	0.5528508
5.026567080489766e-10	2.0411421e-09	1.1851794e-09	0.44192985	-1.2064351e-16	0.55285054
5.050487652665201e-10	2.156368e-09	1.0205711e-09	0.44192985	-1.2064352e-16	0.55285037
5.077399058626142e-10	2.2880546e-09	9.547279e-10	0.44192985	-1.2064351e-16	0.55285054
5.101318630273641e-10	2.534967e-09	7.901196e-10	0.44192985	-1.2064351e-16	0.55285037
5.125241011738637e-10	2.3703588e-09	1.4485525e-09	0.44192985	-1.2064352e-16	0.55285037
5.152150930478188e-10	2.1728288e-09	1.4156308e-09	0.44192985	-1.2064351e-16	0.55285054
5.176071316921934e-10	1.958838e-09	9.218062e-10	0.44192985	-1.2064352e-16	0.55285054
5.202983305156869e-10	1.958838e-09	8.5596286e-10	0.44192985	-1.2064351e-16	0.55285054
5.226903419309153e-10	1.9423774e-09	5.2674637e-10	0.44192985	-1.2064351e-16	0.55285054
5.25082465923073e-10	2.1234463e-09	7.2427625e-10	0.44192985	-1.2064352e-16	0.55285054
5.277734359443943e-10	1.9752988e-09	1.1193361e-09	0.44192985	-1.2064352e-16	0.55285054
5.30165579643558e-10	2.0411421e-09	8.888845e-10	0.44192985	-1.2064352e-16	0.55285084
5.325575421105194e-10	2.1892896e-09	6.58433e-10	0.44192985	-1.2064351e-16	0.55285084
5.352486694870478e-10	1.9094557e-09	8.888845e-10	0.44192985	-1.2064352e-16	0.55285054
5.376406757248037e-10	2.2057505e-09	8.5596286e-10	0.44192985	-1.2064351e-16	0.55285066
5.400329466687481e-10	2.1728288e-09	7.7365875e-10	0.44192985	-1.2064351e-16	0.5528508
5.427238234858143e-10	2.0740638e-09	6.255113e-10	0.44192985	-1.2064351e-16	0.55285054
5.451160581520183e-10	2.0246813e-09	5.925897e-10	0.44192985	-1.2064354e-16	0.55285066
5.475079354173337e-10	1.9259165e-09	2.3045155e-10	0.44192985	-1.2064351e-16	0.55285037
5.501991267245911e-10	2.4032802e-09	3.292165e-10	0.44192985	-1.2064351e-16	0.55285066
5.525911906872046e-10	2.436202e-09	9.218062e-10	0.44192985	-1.2064352e-16	0.55285054
5.552822487531952e-10	2.279824e-09	7.2427625e-10	0.44192985	-1.2064351e-16	0.55285066
5.576744515421465e-10	2.3703588e-09	1.0041102e-09	0.44192985	-1.2064352e-16	0.55285054
5.60066404230382e-10	2.3045155e-09	4.2798143e-10	0.44192985	-1.2064351e-16	0.55285054
5.627576820542536e-10	2.2633633e-09	3.292165e-10	0.44192985	-1.2064352e-16	0.55285054
5.651495901437224e-10	2.2880546e-09	4.938247e-10	0.44192985	-1.2064352e-16	0.55285066
5.675418854802479e-10	2.3374371e-09	2.3045155e-10	0.44192985	-1.2064352e-16	0.55285037
5.702328288103869e-10	2.1069855e-09	1.1193361e-09	0.44192985	-1.2064352e-16	0.55285054
5.726249274967487e-10	2.2222113e-09	1.1522577e-09	0.44192985	-1.2064352e-16	0.55285066
5.750169475503127e-10	2.2469024e-09	1.1522577e-09	0.44192985	-1.2064351e-16	0.55285066
5.77708001417808e-10	2.1728288e-09	7.2427625e-10	0.44192985	-1.2064351e-16	0.55285025
5.80099964960993e-10	2.255133e-09	8.230412e-10	0.44192985	-1.2064352e-16	0.55285054
5.827912174097528e-10	2.2880546e-09	1.3827093e-09	0.44192985	-1.2064351e-16	0.55285054
5.851833328918651e-10	1.8436124e-09	8.5596286e-10	0.44192985	-1.2064351e-16	0.55285054
5.875752807448185e-10	2.156368e-09	9.218062e-10	0.44192985	-1.2064351e-16	0.55285037
5.902665263654551e-10	2.3456674e-09	9.876494e-10	0.44192985	-1.2064352e-16	0.55285054
5.926584871335615e-10	2.419741e-09	1.4156308e-09	0.44192985	-1.2064351e-16	0.55285084
5.950507115457577e-10	2.39505e-09	1.0205711e-09	0.44192985	-1.2064352e-16	0.55285084
5.977416633113515e-10	2.3868196e-09	1.2510226e-09	0.44192985	-1.2064352e-16	0.55285037
6.001339181733832e-10	2.1728288e-09	7.901196e-10	0.44192985	-1.2064351e-16	0.55285066
6.025255978108688e-10	2.2057505e-09	8.5596286e-10	0.44192985	-1.2064351e-16	0.55285054
6.052170902061164e-10	2.3374371e-09	1.1851794e-09	0.44192985	-1.2064351e-16	0.5528508
6.076087974495055e-10	2.3703588e-09	1.1851794e-09	0.44192985	-1.2064352e-16	0.5528508
6.100010798768316e-10	2.057603e-09	1.4485525e-09	0.44192985	-1.2064351e-16	0.55285066
6.126920426636467e-10	2.4526627e-09	1.0534927e-09	0.44192985	-1.2064351e-16	0.55285054
6.150843265217482e-10	2.436202e-09	9.876494e-10	0.44192985	-1.2064351e-16	0.55285054
6.177753297262228e-10	2.1399071e-09	1.5143958e-09	0.44192985	-1.2064351e-16	0.55285084
6.201673798661174e-10	2.0082205e-09	1.679004e-09	0.44192985	-1.2064351e-16	0.55285066
6.225593717574293e-10	1.679004e-09	1.0534927e-09	0.44192985	-1.2064351e-16	0.55285066
6.252507465064228e-10	1.7448474e-09	7.901196e-10	0.44192985	-1.2064352e-16	0.55285066
6.276426511908243e-10	1.8929949e-09	8.5596286e-10	0.44192985	-1.2064351e-16	0.55285066
6.300347995265002e-10	1.7942299e-09	6.4197214e-10	0.44192985	-1.2064351e-16	0.55285066
6.327258170865522e-10	2.0082205e-09	6.255113e-10	0.44192985	-1.2064351e-16	0.55285066
6.351179580850289e-10	2.1234463e-09	2.9629485e-10	0.44192985	-1.2064351e-16	0.55285066
6.375099463373519e-10	1.8271515e-09	6.4197214e-10	0.44192985	-1.2064351e-16	0.5528508
6.402009725294012e-10	2.0987552e-09	5.5966803e-10	0.44192985	-1.2064352e-16	0.5528508
6.425931216847582e-10	2.0329118e-09	7.901196e-10	0.44192985	-1.2064352e-16	0.55285037
6.452842761882839e-10	1.5637783e-09	1.0205711e-09	0.44192985	-1.2064352e-16	0.55285054
6.476761545446041e-10	1.7942299e-09	3.6213813e-10	0.44192985	-1.2064351e-16	0.55285066
6.500686579990113e-10	1.777769e-09	3.6213813e-10	0.44192985	-1.2064352e-16	0.55285066
6.527594312363147e-10	2.1069855e-09	5.2674637e-10	0.44192985	-1.2064351e-16	0.55285037
6.551515780230864e-10	2.2222113e-09	5.925897e-10	0.44192985	-1.2064351e-16	0.55285066
6.575435351803747e-10	2.0740638e-09	1.0864144e-09	0.44192985	-1.2064351e-16	0.55285054
6.602347082820173e-10	2.1399071e-09	1.316866e-09	0.44192985	-1.2064351e-16	0.55285054
6.62626784818227e-10	1.9423774e-09	6.9135464e-10	0.44192985	-1.2064351e-16	0.55285025
6.650187834451545e-10	1.9423774e-09	5.925897e-10	0.44192985	-1.2064351e-16	0.55285054
6.677100395730234e-10	2.2386721e-09	4.2798143e-10	0.44192985	-1.2064351e-16	0.55285037
6.701019377171694e-10	2.0411421e-09	1.975299e-10	0.44192985	-1.2064351e-16	0.55285066
6.727931525940253e-10	2.436202e-09	6.9135464e-10	0.44192985	-1.2064352e-16	0.55285037
6.751850342497784e-10	2.4032802e-09	5.5966803e-10	0.44192985	-1.2064354e-16	0.55285037
6.775771450958556e-10	2.3045155e-09	2.9629485e-10	0.44192985	-1.2064351e-16	0.55285054
6.802682509855926e-10	2.0740638e-09	1.0864144e-09	0.44192985	-1.2064352e-16	0.55285054
6.826603207716302e-10	2.1234463e-09	1.0534927e-09	0.44192985	-1.2064351e-16	0.5528508
6.850525838000427e-10	2.353898e-09	1.0205711e-09	0.44192985	-1.2064351e-16	0.55285066
6.877435008738413e-10	2.3868196e-09	4.609031e-10	0.44192985	-1.2064351e-16	0.55285054
6.901355308919794e-10	2.1892896e-09	1.5143958e-09	0.44192985	-1.2064351e-16	0.55285054
6.925276211129923e-10	1.9259165e-09	1.2510226e-09	0.44192985	-1.2064351e-16	0.55285054
6.952186943256626e-10	1.958838e-09	1.1851794e-09	0.44192985	-1.2064352e-16	0.55285066
6.976108796303946e-10	1.679004e-09	8.888845e-10	0.44192985	-1.2064351e-16	0.55285066
7.000029742839731e-10	1.958838e-09	7.901196e-10	0.44192985	-1.2064351e-16	0.55285054
7.026938995952375e-10	2.2386721e-09	1.5802392e-09	0.44192985	-1.2064351e-16	0.55285054
7.050860995373302e-10	2.2715938e-09	1.1193361e-09	0.44192985	-1.2064351e-16	0.55285066
7.077770415085145e-10	2.0905246e-09	9.876494e-10	0.44192985	-1.2064351e-16	0.55285037
7.101693327126313e-10	2.1728288e-09	9.218062e-10	0.44192985	-1.2064351e-16	0.55285054
7.125611147411123e-10	1.9506077e-09	7.901196e-10	0.44192985	-1.2064352e-16	0.55285054
7.152524061681689e-10	1.876534e-09	1.0534927e-09	0.44192985	-1.2064352e-16	0.55285066
7.176444821441542e-10	1.876534e-09	7.2427625e-10	0.44192985	-1.2064351e-16	0.55285037
7.200364202846991e-10	2.0740638e-09	2.3045155e-10	0.44192985	-1.2064351e-16	0.5528508
7.227276441844586e-10	2.2386721e-09	2.9629485e-10	0.44192985	-1.2064351e-16	0.5528508
7.251195207071749e-10	2.255133e-09	4.609031e-10	0.44192985	-1.2064352e-16	0.55285054
7.275117860644598e-10	2.1892896e-09	6.255113e-10	0.44192985	-1.2064351e-16	0.55285037
7.302027105048644e-10	2.2715938e-09	1.1522577e-09	0.44192985	-1.2064351e-16	0.55285054
7.325948849243673e-10	2.115216e-09	1.1851794e-09	0.44192985	-1.2064351e-16	0.5528508
7.352858842395511e-10	1.7119257e-09	5.7612887e-10	0.44192985	-1.2064351e-16	0.55285054
7.376779970730494e-10	1.9423774e-09	1.0534927e-09	0.44192985	-1.2064352e-16	0.55285054
7.400700053791662e-10	2.1728288e-09	3.6213813e-10	0.44192985	-1.2064351e-16	0.55285066
7.427611852889174e-10	2.0411421e-09	7.2427625e-10	0.44192985	-1.2064352e-16	0.55285084
7.45153260525006e-10	2.2057505e-09	8.5596286e-10	0.44192985	-1.2064351e-16	0.5528508
7.475450475306781e-10	1.8929949e-09	1.0534927e-09	0.44192985	-1.2064351e-16	0.55285084
7.502364314982661e-10	2.0082205e-09	9.218062e-10	0.44192985	-1.2064351e-16	0.55285066
7.526283857873442e-10	2.0411421e-09	3.950598e-10	0.44192985	-1.2064352e-16	0.55285054
7.550205598558624e-10	2.1069855e-09	6.5843296e-11	0.44192985	-1.2064352e-16	0.5528508
7.577115268109824e-10	2.2715938e-09	9.876494e-10	0.44192985	-1.2064351e-16	0.55285054
7.601037358495221e-10	2.016451e-09	9.218062e-10	0.44192985	-1.2064351e-16	0.55285066
7.627946234672664e-10	1.9423774e-09	6.58433e-10	0.44192985	-1.2064352e-16	0.55285066
7.651869205864597e-10	1.9752988e-09	3.6213813e-10	0.44192985	-1.2064351e-16	0.55285066
7.67578829034365e-10	2.3374371e-09	1.6460824e-10	0.44192985	-1.2064351e-16	0.55285066
7.702700113551384e-10	2.3868196e-09	2.6337318e-10	0.44192985	-1.2064351e-16	0.55285066
7.726620110986098e-10	2.419741e-09	8.5596286e-10	0.44192985	-1.2064351e-16	0.55285066
7.750542550697436e-10	2.4032802e-09	1.4156308e-09	0.44192985	-1.2064352e-16	0.55285066
7.777450596190838e-10	2.2715938e-09	1.0370319e-09	0.44192985	-1.2064351e-16	0.55285025
7.801374112114903e-10	1.876534e-09	8.888845e-10	0.44192985	-1.2064352e-16	0.55285054
7.825294093659689e-10	2.3209763e-09	7.571979e-10	0.44192985	-1.2064351e-16	0.55285054
7.85220502515314e-10	2.1728288e-09	8.888845e-10	0.44192985	-1.2064351e-16	0.55285066
7.876125735946828e-10	2.3374371e-09	3.950598e-10	0.44192985	-1.2064351e-16	0.55285066
7.900046152117398e-10	1.9752988e-09	1.1851794e-09	0.44192985	-1.2064351e-16	0.55285037
7.926956390790517e-10	2.0082205e-09	1.1193361e-09	0.44192985	-1.2064351e-16	0.55285054
7.950879212228678e-10	2.353898e-09	9.218062e-10	0.44192985	-1.2064351e-16	0.5528508
7.977786336418198e-10	2.3209763e-09	1.0534927e-09	0.44192985	-1.2064351e-16	0.55285066
8.001710706199174e-10	1.9999902e-09	1.4156308e-09	0.44192985	-1.2064351e-16	0.55285037
8.025627187702291e-10	2.1234463e-09	1.2839443e-09	0.44192985	-1.2064351e-16	0.55285066
8.052542131242123e-10	2.2222113e-09	9.876494e-10	0.44192985	-1.2064351e-16	0.55285096
8.076460010395787e-10	2.2715938e-09	5.925897e-10	0.44192985	-1.2064351e-16	0.55285054
8.100380901740638e-10	2.0246813e-09	1.1193361e-09	0.44192985	-1.2064351e-16	0.55285096
8.127292278708193e-10	2.1399071e-09	4.2798143e-10	0.44192985	-1.2064352e-16	0.5528508
8.151213475422004e-10	2.419741e-09	1.1851794e-09	0.44192985	-1.2064351e-16	0.55285066
8.175133986545938e-10	2.0329118e-09	7.571979e-10	0.44192985	-1.2064351e-16	0.55285066
8.202045147974027e-10	1.958838e-09	7.901196e-10	0.44192985	-1.2064352e-16	0.55285084
8.22596570302301e-10	1.8518427e-09	1.0205711e-09	0.44192985	-1.2064351e-16	0.5528508
8.25287611955227e-10	2.1399071e-09	1.3168659e-10	0.44192985	-1.2064351e-16	0.5528508
8.276796924778254e-10	2.4032802e-09	5.5966803e-10	0.44192985	-1.2064351e-16	0.55285054
8.300717198891719e-10	2.2715938e-09	4.2798143e-10	0.44192985	-1.2064351e-16	0.55285066
8.32762834667655e-10	2.1892896e-09	7.571979e-10	0.44192985	-1.2064351e-16	0.55285054
8.351549735430397e-10	2.0987552e-09	7.2427625e-10	0.44192985	-1.2064351e-16	0.55285066
8.375468603994472e-10	1.9012252e-09	9.0534535e-10	0.44192985	-1.2064351e-16	0.5528508
8.402380016839482e-10	2.0740638e-09	4.938247e-10	0.44192985	-1.2064351e-16	0.5528508
8.426300153823425e-10	1.8436124e-09	7.571979e-10	0.44192985	-1.2064351e-16	0.55285066
8.450223363310478e-10	1.9423774e-09	4.2798143e-10	0.44192985	-1.2064352e-16	0.55285054
8.477132742256059e-10	2.3209763e-09	6.255113e-10	0.44192985	-1.2064351e-16	0.55285054
8.50105330768781e-10	2.4526627e-09	7.2427625e-10	0.44192985	-1.2064351e-16	0.55285066
8.527963148546014e-10	2.1892896e-09	7.2427625e-10	0.44192985	-1.2064351e-16	0.55285054
8.55188678630375e-10	1.8847643e-09	1.5802392e-09	0.44192985	-1.2064351e-16	0.55285037
8.575806225402073e-10	2.057603e-09	1.218101e-09	0.44192985	-1.2064352e-16	0.55285054
8.602716608289117e-10	1.9999902e-09	8.888845e-10	0.44192985	-1.2064352e-16	0.55285084
8.626637829143953e-10	1.8436124e-09	2.9629485e-10	0.44192985	-1.2064351e-16	0.55285066
8.650557008160756e-10	2.0411421e-09	5.2674637e-10	0.44192985	-1.2064352e-16	0.55285037