# t (s)	mx ()	my ()	mz ()	E_total (J)	MaxAngle (rad)
0	1.2450573e-10	3.7417594e-10	0.9952402	-1.2847277e-16	0.2654751
2.5141756945500148e-12	1.4887987e-10	1.8445293e-10	0.99490035	-1.2846415e-16	0.25437453
5.035773696621445e-12	2.1607342e-10	2.345187e-10	0.9946836	-1.2845073e-16	0.24770358
7.506357515037671e-12	2.4769392e-10	1.7918284e-10	0.99455476	-1.2843502e-16	0.24533188
1.0023468491518796e-11	2.52964e-10	3.8735115e-10	0.9945454	-1.2841861e-16	0.24540894
1.2540185813713638e-11	2.2397854e-10	3.5573064e-10	0.9946936	-1.2840384e-16	0.248467
1.5007440235893794e-11	2.0553326e-10	4.3873447e-10	0.99499154	-1.2839253e-16	0.25297087
1.7523865322821474e-11	1.581025e-10	4.1238404e-10	0.99541914	-1.2838517e-16	0.26288998
2.0040209666210503e-11	1.0540167e-11	3.748347e-10	0.9959202	-1.2838253e-16	0.28107548
2.2507128008303244e-11	-1.0540167e-11	3.0829989e-10	0.9964279	-1.283847e-16	0.32044888
2.5023295836626136e-11	9.48615e-11	2.3188368e-10	0.99690765	-1.2839153e-16	0.4233777
2.753941247758293e-11	1.2845829e-10	1.7918284e-10	0.9972999	-1.2840168e-16	0.69308376
3.0006646021791644e-11	-2.9380715e-10	1.4861635e-09	0.99760634	-1.2855784e-16	0.400096
3.2524054598488724e-11	-9.440038e-10	1.6021054e-09	0.9977058	-1.2873307e-16	0.089808896
3.50460840214615e-11	-1.2411047e-09	1.0013159e-10	0.99772257	-1.2874626e-16	0.089808226
3.7516333983553194e-11	-3.4387296e-10	-1.0171262e-09	0.99772984	-1.2875008e-16	0.089808896
4.0034503922183176e-11	1.2641613e-09	-1.1277979e-09	0.9977339	-1.2875181e-16	0.089808896
4.25021736036791e-11	2.268771e-09	3.16205e-10	0.9977359	-1.287527e-16	0.089808226
4.501866138285215e-11	1.135703e-09	1.8497993e-09	0.9977369	-1.2875327e-16	0.089808896
4.753507598257684e-11	-8.6034113e-10	2.1712745e-09	0.9977375	-1.2875361e-16	0.089808896
5.00021496439877e-11	-2.158758e-09	8.274031e-10	0.99773794	-1.2875388e-16	0.089807555
5.251853940236601e-11	-1.6666639e-09	-1.133068e-09	0.99773836	-1.2875408e-16	0.089807555
5.503477739014209e-11	2.4044755e-10	-2.0079018e-09	0.9977389	-1.2875421e-16	0.089808226
5.7501507684977485e-11	2.0032904e-09	-1.2384697e-09	0.99773914	-1.2875433e-16	0.089808896
6.001741963595294e-11	2.3899829e-09	7.694322e-10	0.99773955	-1.2875441e-16	0.089808226
6.253328286282104e-11	1.0586281e-09	2.271406e-09	0.99773973	-1.2875447e-16	0.089808226
6.50491733606845e-11	-7.58892e-10	2.0500626e-09	0.99773985	-1.2875454e-16	0.089808896
6.751571930731136e-11	-1.8030273e-09	7.1673134e-10	0.99774003	-1.2875458e-16	0.089808226
7.00315569120532e-11	-1.4222638e-09	-1.0223962e-09	0.99774015	-1.287546e-16	0.089808896
7.254733504054984e-11	3.5046055e-10	-1.7970985e-09	0.99774027	-1.2875466e-16	0.089808226
7.501371892303412e-11	1.8820785e-09	-9.749654e-10	0.99774027	-1.2875467e-16	0.089808226
7.75293704407511e-11	2.1818145e-09	9.696953e-10	0.9977403	-1.2875471e-16	0.089808226
8.00450197117609e-11	7.061912e-10	2.397888e-09	0.99774045	-1.2875473e-16	0.089808896
8.251134300249907e-11	-1.2417635e-09	1.9446609e-09	0.99774045	-1.2875475e-16	0.089808226
8.50270179950099e-11	-1.963765e-09	2.6350418e-11	0.9977405	-1.2875477e-16	0.089808226
8.754266509610437e-11	-8.280619e-10	-1.5494046e-09	0.9977406	-1.2875477e-16	0.089808226
9.000896169247907e-11	1.0079034e-09	-1.6811567e-09	0.9977406	-1.2875478e-16	0.089808226
9.252453528373821e-11	2.1324076e-09	-1.89723e-10	0.9977406	-1.2875478e-16	0.089808226
9.504010468070105e-11	1.6706165e-09	1.5441345e-09	0.9977406	-1.287548e-16	0.089808226
9.750634122017794e-11	7.312241e-11	2.208165e-09	0.9977407	-1.2875482e-16	0.089808226
1.0002190818717881e-10	-1.4723296e-09	1.2859004e-09	0.9977407	-1.2875482e-16	0.089808226
1.0253746480311682e-10	-1.5836601e-09	-4.0579642e-10	0.9977408	-1.2875482e-16	0.089808226
1.0500368675725122e-10	-4.2028916e-10	-1.5388644e-09	0.99774086	-1.2875483e-16	0.089808226
1.0751921665055485e-10	1.2068492e-09	-1.3754918e-09	0.99774086	-1.2875486e-16	0.089808896
1.1003470975314866e-10	2.070484e-09	4.2160667e-11	0.99774086	-1.2875483e-16	0.089807555
1.1250088368439033e-10	1.5777313e-09	1.5915652e-09	0.99774086	-1.2875483e-16	0.089808226
1.1501637566387663e-10	-3.9525627e-12	2.2872162e-09	0.99774086	-1.2875484e-16	0.089808896
1.1753186000646596e-10	-1.7239761e-09	1.4281927e-09	0.99774086	-1.2875487e-16	0.089807555
1.2004735852277872e-10	-1.9887978e-09	-6.2713995e-10	0.997741	-1.2875487e-16	0.089808226
1.2251351329429104e-10	-5.2371457e-10	-2.139654e-09	0.997741	-1.2875488e-16	0.089807555
1.2502896902572017e-10	1.7299049e-09	-1.9077702e-09	0.997741	-1.2875487e-16	0.089808226
1.2754441815572658e-10	3.0480847e-09	2.1080335e-10	0.997741	-1.2875488e-16	0.089808896
1.3001052582597105e-10	1.9433433e-09	2.592881e-09	0.997741	-1.2875488e-16	0.089808896
1.325259639436954e-10	-8.557298e-10	3.3096124e-09	0.997741	-1.287549e-16	0.089808226
1.350414192908072e-10	-3.1251595e-09	1.2015791e-09	0.99774104	-1.287549e-16	0.089808226
1.3750752650183166e-10	-2.6791787e-09	-1.9815514e-09	0.997741	-1.287549e-16	0.089808226
1.4002295174407437e-10	3.5836567e-10	-3.415014e-09	0.997741	-1.287549e-16	0.089808226
1.4253836365184296e-10	3.4031564e-09	-1.7391276e-09	0.997741	-1.2875491e-16	0.089808226
1.4500443921191918e-10	3.896568e-09	1.8497993e-09	0.99774104	-1.2875491e-16	0.089808226
1.4751984933340578e-10	9.229234e-10	4.4374104e-09	0.99774104	-1.2875491e-16	0.089808226
1.500352473312035e-10	-3.005924e-09	3.4308243e-09	0.9977411	-1.2875491e-16	0.089808896
1.525013257355395e-10	-4.374828e-09	-4.5322718e-10	0.99774104	-1.2875491e-16	0.089808896
1.5501671344185642e-10	-1.9064528e-09	-4.0263437e-09	0.9977411	-1.2875491e-16	0.089808226
1.5753210139764393e-10	2.6192315e-09	-4.036884e-09	0.9977411	-1.2875492e-16	0.089808226
1.6004747360642326e-10	5.148213e-09	-1.581025e-10	0.9977411	-1.2875491e-16	0.089807555
1.6251351700635399e-10	3.4301657e-09	4.1422856e-09	0.9977411	-1.2875494e-16	0.089807555
1.6502887742321984e-10	-1.2661375e-09	5.249003e-09	0.9977411	-1.2875494e-16	0.089808896
1.6754424786584627e-10	-4.9334568e-09	1.9710111e-09	0.9977411	-1.2875491e-16	0.089808226
1.7001029884516894e-10	-4.2305595e-09	-2.9565168e-09	0.99774104	-1.2875494e-16	0.089808226
1.7252566899793448e-10	4.4993337e-10	-5.343865e-09	0.99774104	-1.2875494e-16	0.089807555
1.7504101589222784e-10	5.0197544e-09	-2.7246332e-09	0.9977411	-1.2875494e-16	0.089808226
1.7750702423612272e-10	5.453878e-09	2.592881e-09	0.9977411	-1.2875494e-16	0.089808226
1.8002237136610726e-10	1.1943326e-09	6.113297e-09	0.9977411	-1.2875494e-16	0.089808896
1.8253773043319215e-10	-4.1712713e-09	4.5744324e-09	0.9977411	-1.2875494e-16	0.089808226
1.8500375700738248e-10	-6.0342455e-09	-7.957826e-10	0.9977411	-1.2875492e-16	0.089807555
1.8751911122670004e-10	-2.5421565e-09	-5.615274e-09	0.9977411	-1.2875492e-16	0.089808226
1.9003444768182647e-10	3.5467662e-09	-5.433456e-09	0.9977411	-1.2875495e-16	0.089808226
1.9250046306526318e-10	6.902492e-09	-3.214751e-10	0.9977411	-1.2875492e-16	0.089808226
1.9501578334812425e-10	4.550717e-09	5.6600697e-09	0.9977411	-1.2875494e-16	0.089808226
1.9753112288034207e-10	-1.7443976e-09	6.998671e-09	0.9977411	-1.2875494e-16	0.089808226
2.0004645556559234e-10	-6.5414913e-09	2.5612605e-09	0.9977411	-1.2875494e-16	0.089808226
2.0251248024315645e-10	-5.706183e-09	-3.9262122e-09	0.9977411	-1.2875492e-16	0.089808226
2.0502779599905981e-10	2.1541466e-10	-7.061912e-09	0.9977411	-1.2875494e-16	0.089808226
2.0754311701509625e-10	6.3069723e-09	-3.841891e-09	0.9977411	-1.2875494e-16	0.089808226
2.1000911270036929e-10	7.152162e-09	2.8721956e-09	0.9977411	-1.2875494e-16	0.089807555
2.1252443736985693e-10	2.032276e-09	7.625811e-09	0.9977411	-1.2875494e-16	0.089808226
2.1503976390536305e-10	-4.9782525e-09	6.002625e-09	0.9977411	-1.2875494e-16	0.089808226
2.1750575259112817e-10	-7.611977e-09	-5.6916905e-10	0.9977411	-1.2875494e-16	0.089808226
2.2002106867299759e-10	-3.6719308e-09	-6.7351666e-09	0.9977411	-1.2875494e-16	0.089808226
2.225363910886898e-10	3.7826027e-09	-6.9617805e-09	0.9977411	-1.2875492e-16	0.089808896
2.2500238633633902e-10	8.22133e-09	-1.0171262e-09	0.9977411	-1.2875494e-16	0.089808896
2.275177024594882e-10	5.9571708e-09	6.2713994e-09	0.9977411	-1.2875492e-16	0.089808896
2.300330224734869e-10	-1.4920924e-09	8.574426e-09	0.9977411	-1.2875491e-16	0.089808226
2.3254832825023333e-10	-7.716061e-09	3.6205474e-09	0.9977411	-1.2875494e-16	0.089808226
2.350143198620681e-10	-7.2779853e-09	-4.1475556e-09	0.9977411	-1.2875494e-16	0.089808226
2.3752963254181276e-10	-4.5849727e-10	-8.484834e-09	0.9977411	-1.2875494e-16	0.089808226
2.400449413349982e-10	7.2081567e-09	-5.370215e-09	0.9977411	-1.2875494e-16	0.089808226
2.4251094888861457e-10	8.814873e-09	2.7615237e-09	0.99774104	-1.2875494e-16	0.089808226
2.450262570083863e-10	3.0764113e-09	8.80104e-09	0.99774104	-1.2875491e-16	0.089808226
2.4754156163164305e-10	-5.281941e-09	7.620541e-09	0.9977411	-1.2875494e-16	0.089808226
2.5000755377144764e-10	-9.054004e-09	1.3175208e-10	0.99774104	-1.2875494e-16	0.089808226
2.525228690872777e-10	-5.0092144e-09	-7.5573e-09	0.9977411	-1.2875491e-16	0.089808896
2.5503817810697524e-10	3.671272e-09	-8.526995e-09	0.9977411	-1.2875491e-16	0.089808896
2.5750418139881835e-10	9.397218e-09	-2.0447923e-09	0.9977411	-1.2875491e-16	0.089808896
2.600195041152548e-10	7.459144e-09	6.6192247e-09	0.99774104	-1.2875491e-16	0.089808896
2.625347978684563e-10	-9.123832e-10	9.970998e-09	0.997741	-1.2875491e-16	0.089808226
2.6500078595386187e-10	-8.447944e-09	5.238463e-09	0.99774104	-1.287549e-16	0.089808226
2.6751608436912305e-10	-8.9762695e-09	-3.9314823e-09	0.99774104	-1.287549e-16	0.089808226
2.7003139436493225e-10	-1.6409722e-09	-9.723304e-09	0.997741	-1.287549e-16	0.089808226
2.7254673563380123e-10	7.4400406e-09	-7.014481e-09	0.99774104	-1.287549e-16	0.089808226
2.750127361445953e-10	1.0399193e-08	1.9710111e-09	0.997741	-1.287549e-16	0.089808226
2.775280457356747e-10	4.6330624e-09	9.670603e-09	0.997741	-1.287549e-16	0.089808896
2.800433328473468e-10	-5.037541e-09	9.391289e-09	0.997741	-1.287549e-16	0.089808896
2.8250930948893454e-10	-1.0340563e-08	1.5388644e-09	0.997741	-1.287549e-16	0.089808226
2.8502461953210096e-10	-6.9617805e-09	-7.910395e-09	0.997741	-1.2875488e-16	0.089808896
2.875399464113744e-10	2.623843e-09	-1.03761355e-08	0.99774104	-1.287549e-16	0.089808226
2.900059435350628e-10	1.0328705e-08	-4.0316137e-09	0.997741	-1.2875487e-16	0.089808226
2.9252125407883564e-10	9.5698125e-09	6.29775e-09	0.99774104	-1.2875488e-16	0.089808226
2.9503654161152804e-10	6.732532e-10	1.1520402e-08	0.997741	-1.287549e-16	0.089808226
2.9750250426266614e-10	-8.770078e-09	7.299066e-09	0.997741	-1.2875487e-16	0.089808226
3.000178076869222e-10	-1.0928177e-08	-3.082999e-09	0.99774086	-1.2875488e-16	0.089808226
3.02533128112533e-10	-3.566529e-09	-1.0866912e-08	0.997741	-1.2875488e-16	0.089807555
3.050484644346706e-10	7.143598e-09	-9.317508e-09	0.997741	-1.2875486e-16	0.089808226
3.075144555979159e-10	1.2107358e-08	2.1607342e-10	0.99774086	-1.2875486e-16	0.089808896
3.1002976199571347e-10	7.0612534e-09	1.0160721e-08	0.99774086	-1.2875486e-16	0.089807555
3.125450408541301e-10	-3.954539e-09	1.1689045e-08	0.99774086	-1.2875487e-16	0.089808226
3.150110062720231e-10	-1.1578374e-08	3.5836567e-09	0.99774086	-1.2875484e-16	0.089808226
3.1752631850117503e-10	-9.3273895e-09	-7.678512e-09	0.99774086	-1.2875484e-16	0.089808226
3.200416592269048e-10	1.2068492e-09	-1.22634845e-08	0.99774086	-1.2875484e-16	0.089808896
3.2250766942698326e-10	1.0983513e-08	-6.3188303e-09	0.99774086	-1.2875484e-16	0.089808896
3.250229670000712e-10	1.1915659e-08	5.407106e-09	0.99774086	-1.2875483e-16	0.089808226
3.2753825945839325e-10	2.6989415e-09	1.29644055e-08	0.9977407	-1.2875483e-16	0.089808226
3.300042284355811e-10	-8.697614e-09	9.986809e-09	0.9977407	-1.2875484e-16	0.089808226
3.3251953142941885e-10	-1.3007884e-08	-1.3069807e-09	0.9977407	-1.2875482e-16	0.089808226
3.350348587884719e-10	-6.1824665e-09	-1.1509862e-08	0.9977406	-1.2875482e-16	0.089808226
3.375008854164454e-10	5.961782e-09	-1.1894579e-08	0.9977406	-1.2875482e-16	0.089807555
3.4001619847934105e-10	1.3592204e-08	-2.0079018e-09	0.9977405	-1.287548e-16	0.089807555
3.425314878608739e-10	9.8576916e-09	1.0007889e-08	0.9977406	-1.2875482e-16	0.089808226
3.450467653759932e-10	-2.3768076e-09	1.38972105e-08	0.9977406	-1.287548e-16	0.089808896
3.4751274440543193e-10	-1.2513813e-08	6.355721e-09	0.9977406	-1.287548e-16	0.089807555
3.5002807185433763e-10	-1.2118557e-08	-6.7246266e-09	0.9977405	-1.287548e-16	0.089808226
3.525434181968307e-10	-1.1778637e-09	-1.4076393e-08	0.99774045	-1.2875479e-16	0.089808896
3.550094312311673e-10	1.103819e-08	-9.359669e-09	0.9977405	-1.2875478e-16	0.089808226
3.575247380471377e-10	1.4474943e-08	3.7364893e-09	0.99774045	-1.2875478e-16	0.089808226
3.6004000739271117e-10	5.525024e-09	1.4134364e-08	0.99774045	-1.2875477e-16	0.089808226
3.6250597869130696e-10	-7.928841e-09	1.2911705e-08	0.99774045	-1.2875477e-16	0.089807555
3.650212934510129e-10	-1.4994047e-08	8.906441e-10	0.99774045	-1.2875477e-16	0.089808226
3.6753664185296117e-10	-9.255584e-09	-1.1878768e-08	0.9977403	-1.2875475e-16	0.089808226
3.700026647386846e-10	4.481547e-09	-1.4613942e-08	0.9977403	-1.2875474e-16	0.089808226
3.7251797730036354e-10	1.4887327e-08	-4.795776e-09	0.99774027	-1.2875474e-16	0.089808226
3.7503326138282114e-10	1.2808938e-08	9.49142e-09	0.99774027	-1.2875474e-16	0.089808226
3.7754854090583945e-10	-8.0368774e-11	1.6063215e-08	0.99774027	-1.2875474e-16	0.089808896
3.800145155383767e-10	-1.287152e-08	9.507231e-09	0.99774027	-1.2875473e-16	0.089807555
3.8252985233733176e-10	-1.5041477e-08	-5.0961706e-09	0.99774027	-1.2875473e-16	0.089808226
3.8504520341214453e-10	-4.2562514e-09	-1.5483506e-08	0.99774027	-1.2875469e-16	0.089807555
3.875112176161668e-10	1.0289179e-08	-1.2764143e-08	0.99774015	-1.2875469e-16	0.089808226
3.9002652150131824e-10	1.6715388e-08	1.1857688e-09	0.99774015	-1.2875469e-16	0.089808226
3.9254179093353245e-10	9.067179e-09	1.4440029e-08	0.99774015	-1.2875469e-16	0.089808226
3.950077455744216e-10	-6.1317422e-09	1.6015784e-08	0.99774015	-1.2875467e-16	0.089808226
3.975230674217015e-10	-1.6484163e-08	4.237147e-09	0.9977401	-1.2875467e-16	0.089808226
4.000384136440921e-10	-1.2864932e-08	-1.1214738e-08	0.99774003	-1.2875467e-16	0.089808896
4.0250443994278235e-10	1.6455836e-09	-1.7259524e-08	0.99773985	-1.2875465e-16	0.089808226
4.05019751491543e-10	1.5472965e-08	-8.7219885e-09	0.9977399	-1.2875463e-16	0.089808226
4.075350307653417e-10	1.6501291e-08	7.667971e-09	0.99774003	-1.2875463e-16	0.089808226
4.1000099635585735e-10	3.8866865e-09	1.7976255e-08	0.99773985	-1.2875463e-16	0.089808226
4.125162883022307e-10	-1.2185751e-08	1.3617896e-08	0.99773985	-1.287546e-16	0.089808226
4.150316324450369e-10	-1.7948587e-08	-2.2819462e-09	0.99773973	-1.2875462e-16	0.089808226
4.1754698668574247e-10	-8.24241e-09	-1.6031594e-08	0.99773973	-1.2875459e-16	0.089808226
4.20012990632491e-10	8.389314e-09	-1.6495362e-08	0.99773973	-1.2875459e-16	0.089807555
4.225282839395967e-10	1.8764132e-08	-2.6350417e-09	0.9977397	-1.2875458e-16	0.089808226
4.250435540702594e-10	1.3360979e-08	1.387613e-08	0.9977397	-1.2875458e-16	0.089808226
4.275095188943803e-10	-2.9993363e-09	1.9193644e-08	0.99773955	-1.2875455e-16	0.089808226
4.3002483712221185e-10	-1.7295756e-08	8.748339e-09	0.99773955	-1.2875455e-16	0.089808226
4.325401819073816e-10	-1.708693e-08	-9.133055e-09	0.99773955	-1.2875454e-16	0.089808226
4.350061989775883e-10	-2.428191e-09	-1.9494038e-08	0.9977395	-1.2875454e-16	0.089808226
4.37521515622472e-10	1.4882057e-08	-1.3433443e-08	0.9977395	-1.2875453e-16	0.089808226
4.4003679534166246e-10	2.0094829e-08	4.4532205e-09	0.9977395	-1.2875451e-16	0.089808226
4.425027410342081e-10	8.586943e-09	1.8977572e-08	0.9977395	-1.287545e-16	0.089808226
4.450180396326776e-10	-1.0351103e-08	1.8097467e-08	0.9977393	-1.2875449e-16	0.089808226
4.475333765203526e-10	-2.0761494e-08	2.086953e-09	0.99773926	-1.2875447e-16	0.089808896
4.500487368850564e-10	-1.3586275e-08	-1.5910382e-08	0.99773914	-1.2875447e-16	0.089808226
4.5251472896723166e-10	5.0546687e-09	-2.0663997e-08	0.99773926	-1.2875446e-16	0.089808226
4.550300187961851e-10	2.0271376e-08	-7.968366e-09	0.9977391	-1.2875445e-16	0.089808896
4.5754528736347915e-10	1.864819e-08	1.194728e-08	0.9977391	-1.2875442e-16	0.089808896
4.6001125949848585e-10	1.7081658e-09	2.2329344e-08	0.9977391	-1.2875441e-16	0.089808896
4.6252658083678916e-10	-1.7177179e-08	1.4450569e-08	0.9977391	-1.2875442e-16	0.089808226
4.6504192330002304e-10	-2.1590873e-08	-5.739121e-09	0.9977389	-1.2875438e-16	0.089807555
4.675079367972023e-10	-7.994058e-09	-2.1085604e-08	0.9977389	-1.2875437e-16	0.089808896
4.700232577844566e-10	1.30276465e-08	-1.898284e-08	0.9977389	-1.2875437e-16	0.089808226
4.725385246766609e-10	2.3461094e-08	-3.3728534e-10	0.9977388	-1.2875435e-16	0.089808226
4.750044787526286e-10	1.4621188e-08	1.89196e-08	0.9977388	-1.2875434e-16	0.089808226
4.775197755358507e-10	-6.766787e-09	2.3082967e-08	0.9977388	-1.2875432e-16	0.089808226
4.800351105509999e-10	-2.2750292e-08	7.857695e-09	0.9977386	-1.2875432e-16	0.089808896
4.82501142174986e-10	-1.9837254e-08	-1.387613e-08	0.9977386	-1.287543e-16	0.089808226
4.85016471032097e-10	1.5217366e-10	-2.451116e-08	0.9977384	-1.287543e-16	0.089808896
4.875317682226221e-10	2.0507871e-08	-1.4271386e-08	0.99773836	-1.2875426e-16	0.089808226
4.900470352616736e-10	2.4116561e-08	8.495375e-09	0.99773836	-1.2875426e-16	0.089808896
4.925129918171198e-10	7.798406e-09	2.4764123e-08	0.99773836	-1.2875425e-16	0.089808896
4.950283044766062e-10	-1.5731858e-08	2.0922231e-08	0.9977383	-1.2875424e-16	0.089808226
4.9754365613496e-10	-2.626346e-08	-7.7997236e-10	0.9977382	-1.2875421e-16	0.089808226
5.000096733369649e-10	-1.4939369e-08	-2.1976248e-08	0.9977383	-1.2875421e-16	0.089808896
5.025249858956859e-10	9.642935e-09	-2.5159379e-08	0.9977382	-1.2875418e-16	0.089808226
5.050402633068461e-10	2.6711419e-08	-6.7878676e-09	0.9977381	-1.2875417e-16	0.089808226
5.07506208926885e-10	2.1867553e-08	1.7702211e-08	0.9977381	-1.2875414e-16	0.089808226
5.10021510514909e-10	-1.57312e-09	2.8521692e-08	0.99773794	-1.2875413e-16	0.089808896
5.125368451305534e-10	-2.4290474e-08	1.5383375e-08	0.9977378	-1.2875413e-16	0.089808226
5.150028680393434e-10	-2.6895213e-08	-1.05875975e-08	0.99773777	-1.287541e-16	0.089808226
5.175181918752515e-10	-6.822782e-09	-2.8495341e-08	0.99773765	-1.2875409e-16	0.089808896
5.200334931938555e-10	1.9831983e-08	-2.2476906e-08	0.9977376	-1.2875408e-16	0.089808226
5.225487570884996e-10	3.0482823e-08	3.1409697e-09	0.9977375	-1.2875404e-16	0.089807555
5.250147186720545e-10	1.6111304e-08	2.6729206e-08	0.9977375	-1.2875404e-16	0.089808896
5.275300348430361e-10	-1.2413682e-08	2.8974918e-08	0.9977374	-1.2875402e-16	0.089808226
5.300453709069032e-10	-3.090509e-08	6.682466e-09	0.9977374	-1.2875401e-16	0.089808226
5.325114047017136e-10	-2.3791133e-08	-2.1217357e-08	0.99773735	-1.2875398e-16	0.089808226
5.350267130855807e-10	3.9420223e-09	-3.222656e-08	0.9977372	-1.2875396e-16	0.089808226
5.375419876248342e-10	2.9203509e-08	-1.5625798e-08	0.99773705	-1.2875393e-16	0.089808896
5.400079465796676e-10	3.0708776e-08	1.4355708e-08	0.997737	-1.2875392e-16	0.089808226
5.425232262250153e-10	6.341228e-09	3.3754883e-08	0.9977369	-1.2875392e-16	0.089808226
5.450385530213341e-10	-2.3949235e-08	2.4901144e-08	0.9977369	-1.2875387e-16	0.089808226
5.475045770778095e-10	-3.4556596e-08	-4.532272e-09	0.9977368	-1.2875387e-16	0.089808226
5.500199038768701e-10	-1.617784e-08	-3.1272677e-08	0.99773675	-1.2875384e-16	0.089808896
5.525352013125134e-10	1.6726586e-08	-3.1783873e-08	0.99773675	-1.2875381e-16	0.089808896
5.550011488753819e-10	3.6253564e-08	-5.4374087e-09	0.9977366	-1.2875379e-16	0.089808226
5.575164164226682e-10	2.6085596e-08	2.6935396e-08	0.99773645	-1.2875377e-16	0.089808226
5.600317246311864e-10	-6.68576e-09	3.7438674e-08	0.9977363	-1.2875376e-16	0.089807555
5.625470656016903e-10	-3.4674514e-08	1.6268748e-08	0.9977362	-1.2875373e-16	0.089808226
5.650130967182802e-10	-3.3945927e-08	-1.8661366e-08	0.9977362	-1.2875369e-16	0.089808226
5.675284116341826e-10	-4.2858956e-09	-3.9219962e-08	0.9977361	-1.2875369e-16	0.089808226
5.700436918249777e-10	3.0235785e-08	-2.654014e-08	0.99773604	-1.2875365e-16	0.089808226
5.725096311285284e-10	4.017187e-08	8.6903675e-09	0.9977359	-1.2875363e-16	0.089807555
5.750249179772676e-10	1.6548722e-08	3.831351e-08	0.9977357	-1.2875359e-16	0.089808226
5.77540244679485e-10	-2.182671e-08	3.6100072e-08	0.9977356	-1.2875359e-16	0.089808226
5.800062727630605e-10	-4.239914e-08	3.826081e-09	0.9977356	-1.2875357e-16	0.089808226
5.8252162189464e-10	-2.7742379e-08	-3.277992e-08	0.99773544	-1.2875352e-16	0.089808226
5.850369169850782e-10	1.11501794e-08	-4.217121e-08	0.99773544	-1.287535e-16	0.089808226
5.875028776101729e-10	4.1470287e-08	-1.6237127e-08	0.9977353	-1.2875347e-16	0.089808226
5.900181408491894e-10	3.8123783e-08	2.4748312e-08	0.99773514	-1.2875347e-16	0.089808226
5.925334434762544e-10	2.065214e-09	4.612377e-08	0.9977349	-1.287534e-16	0.089808896
5.950487863239885e-10	-3.6862257e-08	2.8674524e-08	0.9977349	-1.287534e-16	0.089808226
5.975148197542725e-10	-4.5339846e-08	-1.2980216e-08	0.99773484	-1.2875336e-16	0.089808226
6.000301503306655e-10	-1.5484822e-08	-4.5206775e-08	0.9977347	-1.2875332e-16	0.089807555
6.02545435025303e-10	2.866662e-08	-3.9335905e-08	0.99773467	-1.287533e-16	0.089808226
6.050113697061427e-10	4.971138e-08	-2.2661359e-10	0.99773455	-1.2875326e-16	0.089808226
6.075266631716116e-10	2.9470307e-08	4.104868e-08	0.9977341	-1.2875324e-16	0.089808226
6.100419803656355e-10	-1.6488116e-08	4.8389907e-08	0.9977341	-1.287532e-16	0.089808226
6.125080221141309e-10	-4.9256837e-08	1.5530937e-08	0.99773407	-1.2875318e-16	0.089808896
6.150233729380716e-10	-4.151574e-08	-3.1894544e-08	0.99773395	-1.2875314e-16	0.089808226
6.175386782438171e-10	2.3497986e-09	-5.3117173e-08	0.9977338	-1.2875308e-16	0.089808896
6.200046233632597e-10	4.5068436e-08	-3.0007854e-08	0.99773353	-1.2875308e-16	0.089808896
6.225198827137109e-10	5.1404395e-08	1.9768084e-08	0.9977334	-1.2875303e-16	0.089808226
6.250351778676405e-10	1.3932125e-08	5.425024e-08	0.99773335	-1.28753e-16	0.089808226
6.275012000347207e-10	-3.5826687e-08	4.3883986e-08	0.9977333	-1.2875297e-16	0.089808226
6.300165621628719e-10	-5.706776e-08	-4.047424e-09	0.997733	-1.2875293e-16	0.089808226
6.325318950061187e-10	-2.9818132e-08	-4.9665267e-08	0.9977328	-1.2875289e-16	0.089808226
6.350471820294718e-10	2.3937378e-08	-5.3812823e-08	0.99773276	-1.2875285e-16	0.089808896
6.37513118112547e-10	5.8733765e-08	-1.2690361e-08	0.9977326	-1.2875279e-16	0.089808226
6.400283884223591e-10	4.5254865e-08	4.1264755e-08	0.9977324	-1.2875275e-16	0.089808226
6.425437024180007e-10	-7.560594e-09	6.158093e-08	0.99773216	-1.2875271e-16	0.089808226
6.450097548134366e-10	-5.458555e-08	3.0735126e-08	0.99773204	-1.2875267e-16	0.089808226
6.475251248329939e-10	-5.7196875e-08	-2.7335924e-08	0.99773186	-1.2875265e-16	0.089807555
6.500404313562636e-10	-1.0424884e-08	-6.347289e-08	0.9977318	-1.287526e-16	0.089808226
6.525063711904931e-10	4.5909015e-08	-4.674037e-08	0.99773157	-1.2875255e-16	0.089807555
6.550216100195922e-10	6.596761e-08	1.071935e-08	0.99773127	-1.2875253e-16	0.089808226
6.57536907899366e-10	2.993671e-08	6.098541e-08	0.9977312	-1.2875248e-16	0.089807555
6.600029321422764e-10	-3.1672542e-08	6.10223e-08	0.99773103	-1.2875241e-16	0.089808226
6.625183097363396e-10	-6.888855e-08	9.401829e-09	0.9977308	-1.2875238e-16	0.089807555
6.650336508210713e-10	-4.7849063e-08	-5.167317e-08	0.9977306	-1.2875233e-16	0.089808896
6.675489292877288e-10	1.517257e-08	-6.987604e-08	0.99773043	-1.2875225e-16	0.089808896
6.700148518308147e-10	6.6524926e-08	-2.9328016e-08	0.99773014	-1.287522e-16	0.089808226
6.725301079026751e-10	6.348409e-08	3.7955143e-08	0.9977299	-1.2875216e-16	0.089808896
6.750454179794153e-10	5.947948e-09	7.4766675e-08	0.9977297	-1.2875212e-16	0.089808226
6.775114649467377e-10	-5.7442595e-08	4.975486e-08	0.99772966	-1.2875204e-16	0.089808226
6.800268322446247e-10	-7.451964e-08	-1.8524343e-08	0.9977293	-1.28752e-16	0.089808226
6.825421498357501e-10	-2.7970968e-08	-7.2642834e-08	0.9977291	-1.2875193e-16	0.089808226
6.850080812257059e-10	4.2953157e-08	-6.639251e-08	0.99772894	-1.2875189e-16	0.089808896
6.875233099563853e-10	8.04498e-08	-3.1673202e-09	0.9977286	-1.2875185e-16	0.089808226
6.900385945513825e-10	4.987146e-08	6.480095e-08	0.99772835	-1.2875179e-16	0.089807555
6.925046272190012e-10	-2.2887972e-08	7.965204e-08	0.99772817	-1.2875172e-16	0.089808226
6.950200162049387e-10	-7.913228e-08	2.7536187e-08	0.9977278	-1.2875164e-16	0.089807555
6.975353584696235e-10	-6.8857595e-08	-4.9575675e-08	0.99772763	-1.2875159e-16	0.089807555
7.000013239097215e-10	-4.6244983e-10	-8.5970875e-08	0.9977274	-1.2875151e-16	0.089808896
7.025165528774202e-10	7.129303e-08	-5.0497942e-08	0.99772716	-1.2875147e-16	0.089808226
7.05031793630315e-10	8.3769955e-08	2.9586248e-08	0.99772686	-1.2875139e-16	0.089808226
7.075471178824755e-10	2.4617878e-08	8.675612e-08	0.99772656	-1.2875131e-16	0.089808896
7.100131612385029e-10	-5.5893846e-08	7.2136906e-08	0.9977264	-1.2875124e-16	0.089808226
7.125285441216677e-10	-9.2234366e-08	-4.2160666e-09	0.997726	-1.2875119e-16	0.089808896
7.150438663972192e-10	-5.013101e-08	-7.893004e-08	0.99772567	-1.2875111e-16	0.089808896
7.175097918916201e-10	3.4785845e-08	-8.833187e-08	0.9977255	-1.2875105e-16	0.089808226
7.200250117931277e-10	9.38569e-08	-2.2656089e-08	0.9977251	-1.2875098e-16	0.089808226
7.225402818229393e-10	7.39149e-08	6.46323e-08	0.99772483	-1.287509e-16	0.089808896
7.250063184693269e-10	-8.338589e-09	9.920932e-08	0.99772453	-1.2875081e-16	0.089808226
7.275217107503879e-10	-8.6884576e-08	5.096171e-08	0.9977243	-1.2875074e-16	0.089808226
7.30037071735636e-10	-9.270999e-08	-4.22081e-08	0.9977239	-1.2875065e-16	0.089808226
7.325030331368135e-10	-2.0701547e-08	-1.0115925e-07	0.9977236	-1.2875057e-16	0.089808226
7.350182419547705e-10	7.201371e-08	-7.6202774e-08	0.99772334	-1.2875049e-16	0.089808896
7.375334787228808e-10	1.05537374e-07	1.5177841e-08	0.9977229	-1.2875042e-16	0.089808226
7.400487795123209e-10	4.931217e-08	9.6252805e-08	0.99772257	-1.2875033e-16	0.089808226
7.425148556522221e-10	-4.8961052e-08	9.798139e-08	0.9977223	-1.2875024e-16	0.089808226
7.450302353087056e-10	-1.09459634e-07	1.6553333e-08	0.99772185	-1.2875015e-16	0.089808226
7.475455535553511e-10	-7.733057e-08	-8.1053884e-08	0.99772143	-1.2875005e-16	0.089808896
7.500114818725336e-10	2.019562e-08	-1.1185225e-07	0.9977212	-1.2874999e-16	0.089808226
7.525266698649244e-10	1.04791e-07	-4.8542738e-08	0.99772084	-1.2874988e-16	0.089807555
7.550419415174698e-10	1.0170207e-07	5.857698e-08	0.9977204	-1.2874979e-16	0.089808226
7.575079751575732e-10	1.3378766e-08	1.1825541e-07	0.99771994	-1.2874968e-16	0.089808226
7.60023380172809e-10	-8.9925415e-08	8.011581e-08	0.9977197	-1.287496e-16	0.089808226
7.625387342258321e-10	-1.1862233e-07	-2.7824724e-08	0.99771917	-1.2874947e-16	0.089808226
7.650046840248488e-10	-4.8153414e-08	-1.1355976e-07	0.9977189	-1.2874939e-16	0.089808226
7.675198937687577e-10	6.63991e-08	-1.0616056e-07	0.9977184	-1.2874929e-16	0.089808226
7.700351181517026e-10	1.269675e-07	-6.9196195e-09	0.9977179	-1.2874918e-16	0.089808226
7.725011046279142e-10	8.202951e-08	9.974687e-08	0.99771756	-1.2874907e-16	0.089808896
7.750164972827704e-10	-3.453881e-08	1.2619742e-07	0.997717	-1.2874897e-16	0.089808226
7.775318949395956e-10	-1.2449782e-07	4.5154074e-08	0.9977166	-1.2874885e-16	0.089808226
7.800472075083634e-10	-1.0982063e-07	-7.675877e-08	0.99771625	-1.2874873e-16	0.089808896
7.825131237318425e-10	-2.7483487e-09	-1.3568884e-07	0.9977158	-1.2874862e-16	0.089808226
7.850283237805163e-10	1.11161214e-07	-8.142806e-08	0.99771523	-1.2874852e-16	0.089808896
7.875435857360007e-10	1.3272508e-07	4.4548017e-08	0.9977148	-1.2874839e-16	0.089808226
7.900096213946016e-10	4.3331944e-08	1.3519872e-07	0.9977143	-1.2874827e-16	0.089808226
7.925250423536683e-10	-8.645967e-08	1.1491417e-07	0.99771386	-1.2874815e-16	0.089808226
7.950404217832648e-10	-1.4541807e-07	-4.521732e-09	0.9977132	-1.2874802e-16	0.089808896
7.975063676239606e-10	-8.310856e-08	-1.2150704e-07	0.9977128	-1.2874787e-16	0.089808226
8.000215584743883e-10	5.2464998e-08	-1.397468e-07	0.9977122	-1.2874776e-16	0.089808226
8.025367804609718e-10	1.4667565e-07	-3.7997303e-08	0.9977116	-1.2874764e-16	0.089808896
8.050027828994762e-10	1.1933051e-07	9.699062e-08	0.99771106	-1.2874749e-16	0.089808226
8.075181776380489e-10	-1.0467703e-08	1.5540422e-07	0.9977107	-1.2874734e-16	0.089808226
8.100335927350681e-10	-1.3449254e-07	8.208155e-08	0.99771005	-1.2874721e-16	0.089808226
8.125489290078085e-10	-1.4623559e-07	-6.33833e-08	0.99770945	-1.2874704e-16	0.089808896
8.150148426529223e-10	-3.5461735e-08	-1.5741213e-07	0.99770886	-1.2874689e-16	0.089808896
8.175300334639913e-10	1.10011015e-07	-1.2111705e-07	0.9977083	-1.2874677e-16	0.089808226
8.200452870578713e-10	1.6494373e-07	2.0526976e-08	0.9977074	-1.287466e-16	0.089808226
8.225113326628459e-10	8.232134e-08	1.4701425e-07	0.997707	-1.2874645e-16	0.089808896
8.250267550114416e-10	-7.337801e-08	1.5406034e-07	0.99770653	-1.2874632e-16	0.089808226
8.275421328949223e-10	-1.7018021e-07	2.9328016e-08	0.9977057	-1.2874614e-16	0.089808226
8.300081070717715e-10	-1.2551627e-07	-1.2149124e-07	0.99770504	-1.2874598e-16	0.089808226
8.325233063883982e-10	2.7732497e-08	-1.7486664e-07	0.9977045	-1.2874582e-16	0.089808896
8.350385113002249e-10	1.6142991e-07	-7.904598e-08	0.99770373	-1.2874567e-16	0.089808226
8.375044947530416e-10	1.6165586e-07	8.464808e-08	0.9977031	-1.2874547e-16	0.089808226
8.400199136402751e-10	2.4700881e-08	1.8339891e-07	0.9977024	-1.287453e-16	0.089808226
8.425353473612038e-10	-1.3715261e-07	1.275413e-07	0.99770164	-1.2874513e-16	0.089808226
8.45001368558175e-10	-1.8608401e-07	-3.5588876e-08	0.99770087	-1.2874494e-16	0.089808226
8.475165992402975e-10	-7.9022925e-08	-1.7488772e-07	0.9977003	-1.2874475e-16	0.089808896
8.500317981488278e-10	9.906703e-08	-1.6752014e-07	0.9976995	-1.2874459e-16	0.089807555