# t (s)	mx ()	my ()	mz ()	E_total (J)	MaxAngle (rad)
0	1.0493776e-09	6.9135464e-10	0.97953606	-2.072577e-17	0.26627314
2.5213804588159825e-12	2.4217988e-09	1.6131608e-09	0.9746581	-2.0706958e-17	0.24788876
5.048487868317207e-12	3.6296117e-09	4.0658237e-09	0.97066385	-2.0672622e-17	0.23863386
7.5221160391815e-12	2.2715938e-09	7.4073707e-09	0.9679715	-2.0627709e-17	0.2358683
1.0044200213535523e-11	-1.7119257e-09	1.0666614e-08	0.96688384	-2.057456e-17	0.23385638
1.2515978838929812e-11	-7.802431e-09	1.017279e-08	0.96763676	-2.051937e-17	0.23484255
1.5036571709997585e-11	-1.2345618e-08	6.716016e-09	0.97019184	-2.0462744e-17	0.23510064
1.7507206323707642e-11	-1.4946428e-08	9.218062e-10	0.9741871	-2.0407848e-17	0.24005768
2.002692134992009e-11	-1.5143959e-08	-7.4402924e-09	0.9792977	-2.035204e-17	0.25178453
2.2546367722095842e-11	-8.493785e-09	-1.659251e-08	0.9845517	-2.0294926e-17	0.3083233
2.5016240379998116e-11	4.1810493e-09	-2.1069855e-08	0.98795044	-2.0238997e-17	0.5734896
2.7535369843471956e-11	1.896287e-08	-1.4222152e-08	0.9852298	-2.0205084e-17	0.4065941
3.000499332847858e-11	2.3835273e-08	-1.0534927e-09	0.97200954	-2.024047e-17	0.21897487
3.2523856843062465e-11	2.1135698e-08	6.716016e-09	0.9496896	-2.0332971e-17	0.21728234
3.504258886694068e-11	2.0411422e-08	9.020532e-09	0.9245676	-2.0400348e-17	0.21783628
3.75117593117134e-11	1.8929947e-08	1.3497876e-08	0.90255487	-2.0414224e-17	0.22070175
4.0030180092737264e-11	1.2296236e-08	2.1859975e-08	0.88561517	-2.0393097e-17	0.22053586
4.254844244041942e-11	7.1357675e-09	2.9728248e-08	0.8741662	-2.036361e-17	0.21852195
4.501718206764265e-11	5.7571734e-09	3.4403122e-08	0.86722744	-2.0335921e-17	0.21998999
4.753532189171162e-11	6.148118e-09	3.930845e-08	0.8634749	-2.0310288e-17	0.22000255
5.000409958106933e-11	3.9999803e-09	4.2600615e-08	0.86217177	-2.0288482e-17	0.22028068
5.2522296844704554e-11	-1.5802392e-09	4.3917478e-08	0.86252975	-2.0270251e-17	0.22092707
5.504041360398847e-11	-7.209841e-09	4.2798142e-08	0.86403507	-2.0255948e-17	0.22159006
5.750915329667537e-11	-1.2312697e-08	4.1053294e-08	0.8662195	-2.0244951e-17	0.22197808
6.002724563966226e-11	-1.5868235e-08	3.8781703e-08	0.8688931	-2.0235773e-17	0.22173943
6.254535141490425e-11	-1.9028713e-08	3.6905167e-08	0.8718635	-2.0227688e-17	0.22056065
6.501409248770232e-11	-2.1958739e-08	3.456773e-08	0.87498397	-2.0220088e-17	0.21827932
6.753220121456633e-11	-2.4888767e-08	3.3448394e-08	0.878326	-2.0212128e-17	0.21814165
7.000093214859678e-11	-2.9333188e-08	3.23949e-08	0.8817282	-2.0203688e-17	0.21671979
7.251904838833681e-11	-3.377761e-08	3.0090387e-08	0.88532734	-2.0194022e-17	0.21576278
7.503716047663728e-11	-3.9012154e-08	2.6864065e-08	0.8890875	-2.0182871e-17	0.21515948
7.750590433942224e-11	-4.352242e-08	2.3242684e-08	0.8929793	-2.0170048e-17	0.21399921
8.002401955903387e-11	-4.9810453e-08	1.8831184e-08	0.89721966	-2.0154499e-17	0.21402138
8.254215149718695e-11	-5.6427705e-08	1.2049323e-08	0.9018045	-2.0135814e-17	0.21345375
8.501090028921515e-11	-6.2254834e-08	3.094635e-09	0.90671587	-2.011371e-17	0.21325897
8.752903678386226e-11	-6.864164e-08	-7.637823e-09	0.91224694	-2.0086352e-17	0.21399108
9.004717848713991e-11	-7.29873e-08	-2.1662444e-08	0.91841024	-2.005299e-17	0.21426652
9.251594396431558e-11	-7.492967e-08	-4.154712e-08	0.925159	-2.001308e-17	0.21467318
9.503411427238704e-11	-7.137413e-08	-6.597499e-08	0.93281543	-1.9963278e-17	0.21564776
9.750288758372443e-11	-5.7382433e-08	-9.455098e-08	0.941029	-1.9903125e-17	0.21657366
1.0002105777136937e-10	-2.877352e-08	-1.2352203e-07	0.9498652	-1.9825987e-17	0.21551402
1.0253924321376466e-10	1.657605e-08	-1.4656717e-07	0.95846444	-1.9724772e-17	0.21554968
1.0500804658419856e-10	7.934117e-08	-1.561803e-07	0.9650973	-1.958926e-17	0.21219292
1.0752624526689868e-10	1.5715561e-07	-1.3892935e-07	0.96645445	-1.9411097e-17	0.20468578
1.1004445183800351e-10	2.2488778e-07	-7.637823e-08	0.9559525	-1.9273467e-17	0.20490646
1.1251326136874287e-10	2.445091e-07	2.7489577e-08	0.9300588	-1.9328253e-17	0.21834041
1.1503145281483486e-10	1.993735e-07	1.27736e-07	0.894179	-1.9547737e-17	0.23229305
1.175002478495256e-10	1.3115985e-07	1.8699497e-07	0.8622853	-1.9776699e-17	0.23024157
1.200185477766012e-10	4.2271395e-08	2.1334874e-07	0.837089	-1.9947178e-17	0.20882444
1.2253696461042908e-10	-4.6287838e-08	1.9804841e-07	0.81782687	-2.0049553e-17	0.20502126
1.250056393630692e-10	-1.0846037e-07	1.5135728e-07	0.80404806	-2.0101106e-17	0.20697105
1.275235610864512e-10	-1.3638204e-07	8.951602e-08	0.7947312	-2.0123453e-17	0.21085091
1.3004164973112205e-10	-1.3153227e-07	3.2658274e-08	0.7895569	-2.0129905e-17	0.21198651
1.3251042093151642e-10	-1.0881428e-07	-7.370334e-09	0.787771	-2.0130018e-17	0.2131925
1.3502853123525493e-10	-8.008191e-08	-2.957187e-08	0.78871894	-2.0129093e-17	0.21306737
1.3754665002649775e-10	-5.5061456e-08	-3.655949e-08	0.79182875	-2.012962e-17	0.21314853
1.4001539043904794e-10	-3.670764e-08	-3.6142826e-08	0.79637563	-2.0132423e-17	0.21426849
1.4253353708861034e-10	-2.4921688e-08	-3.172721e-08	0.8021365	-2.0137705e-17	0.21397704
1.4500233832749914e-10	-1.738263e-08	-2.7059537e-08	0.80859154	-2.014491e-17	0.21563661
1.4752050680100998e-10	-1.139089e-08	-2.2711822e-08	0.81567055	-2.0153756e-17	0.21531296
1.5003867683607887e-10	-5.267464e-09	-1.7755056e-08	0.82290924	-2.0163436e-17	0.21746832
1.5250745532330526e-10	-2.1069855e-09	-1.1078135e-08	0.8298958	-2.0173023e-17	0.2180061
1.5502561387824165e-10	-1.218101e-09	-3.571999e-09	0.83672863	-2.0182279e-17	0.21902536
1.5754375184587428e-10	-3.7859897e-09	1.218101e-09	0.84315366	-2.0190506e-17	0.22014971
1.6001254429925721e-10	-6.913546e-09	4.230432e-09	0.84899867	-2.0197224e-17	0.22023758
1.6253068088936742e-10	-1.0962909e-08	5.267464e-09	0.8544817	-2.0202487e-17	0.2213966
1.6504881267653895e-10	-1.3678945e-08	5.0040905e-09	0.8595068	-2.0206034e-17	0.22125785
1.6751754855999945e-10	-1.6263295e-08	3.555538e-09	0.86404717	-2.0207802e-17	0.22185323
1.7003565717933848e-10	-1.8041064e-08	2.6337318e-10	0.8683633	-2.0207857e-17	0.22200298
1.7250439538509862e-10	-1.9456694e-08	-1.3827093e-09	0.8723675	-2.0206196e-17	0.22037695
1.7502248857575436e-10	-2.1004011e-08	-4.016441e-09	0.87630004	-2.0202748e-17	0.21830243
1.7754058999833784e-10	-2.2584251e-08	-7.3744495e-09	0.8801542	-2.0197497e-17	0.21749401
1.8000932436077064e-10	-2.2880545e-08	-1.257607e-08	0.8839258	-2.019051e-17	0.21545407
1.8252742179195432e-10	-2.1464915e-08	-1.6855884e-08	0.8878357	-2.0181326e-17	0.21548948
1.850455222239243e-10	-1.9292086e-08	-2.0872326e-08	0.8918818	-2.0169818e-17	0.21355474
1.8751426013948215e-10	-1.758016e-08	-2.4559549e-08	0.8960564	-2.0155905e-17	0.21421297
1.9003236415789444e-10	-1.4617212e-08	-2.8641834e-08	0.90060997	-2.0138536e-17	0.21295431
1.9250109544693985e-10	-1.0831222e-08	-3.3382552e-08	0.9054542	-2.0117744e-17	0.21361999
1.950192287282387e-10	-5.464994e-09	-3.7662367e-08	0.91088426	-2.009184e-17	0.21379367
1.9753734197565582e-10	1.777769e-09	-4.2073868e-08	0.91691613	-2.0060122e-17	0.21356796
2.0000610276531565e-10	1.1127518e-08	-4.6880427e-08	0.92351204	-2.0022097e-17	0.21367228
2.0252424193035454e-10	2.4427862e-08	-4.7868078e-08	0.9310027	-1.997461e-17	0.21450914
2.05042379559325e-10	4.1810495e-08	-4.5300187e-08	0.9392432	-1.991605e-17	0.21607298
2.0751116028314673e-10	6.011493e-08	-3.476526e-08	0.9478519	-1.9844271e-17	0.21667655
2.1002932659668015e-10	7.8946115e-08	-1.5275646e-08	0.9566033	-1.9749404e-17	0.21602933
2.125474958718206e-10	9.3349335e-08	1.5934077e-08	0.96397156	-1.9620266e-17	0.2124113
2.150162994548868e-10	9.676496e-08	5.7283668e-08	0.966893	-1.9451686e-17	0.20638928
2.1753447513289132e-10	7.9143646e-08	1.02715546e-07	0.9596381	-1.9290638e-17	0.20306987
2.2000327638766437e-10	3.0090387e-08	1.3287178e-07	0.9371329	-1.9296233e-17	0.21518877
2.225214598484385e-10	-3.2987494e-08	1.287895e-07	0.902259	-1.9491512e-17	0.22929129
2.250396096130859e-10	-7.802431e-08	1.0014765e-07	0.8682359	-1.9732723e-17	0.23393199
2.2750847031732782e-10	-1.0686367e-07	5.86993e-08	0.8421092	-1.991494e-17	0.21241468
2.3002688642541636e-10	-1.14764866e-07	8.074034e-09	0.8216012	-2.0031472e-17	0.20512809
2.3254497856393594e-10	-9.8929554e-08	-3.574468e-08	0.8064556	-2.0093097e-17	0.2067505
2.3501349657078073e-10	-7.0156034e-08	-6.135463e-08	0.79635984	-2.0120037e-17	0.21026716
2.3753154353966465e-10	-3.7689116e-08	-6.8034645e-08	0.7903248	-2.0129058e-17	0.2114311
2.40000294242291e-10	-1.1744798e-08	-6.169517e-08	0.787849	-2.013001e-17	0.21309386
2.425184038952085e-10	5.8600533e-09	-5.042362e-08	0.78822	-2.0129037e-17	0.21318544
2.450364804560934e-10	1.4683056e-08	-3.7938086e-08	0.7909056	-2.0129124e-17	0.21279322
2.4750521153842e-10	1.738263e-08	-2.7193282e-08	0.7951571	-2.0131387e-17	0.2140803
2.5002331583339637e-10	1.7250944e-08	-1.9497847e-08	0.80069256	-2.013615e-17	0.21424156
2.525414555358185e-10	1.6658355e-08	-1.40554866e-08	0.80712736	-2.0143102e-17	0.21531743
2.550102087277248e-10	1.5275646e-08	-8.853866e-09	0.8139953	-2.0151533e-17	0.21562324
2.5752836705467564e-10	1.3497876e-08	-5.0061484e-09	0.8212298	-2.0161098e-17	0.21728787
2.6004649998594296e-10	1.0337398e-08	-2.0987552e-09	0.82840335	-2.017093e-17	0.21731246
2.625152544048568e-10	7.308606e-09	-5.925897e-10	0.8351805	-2.0180175e-17	0.21911806
2.6503337988882096e-10	3.6213814e-09	-4.2798143e-10	0.84170896	-2.0188688e-17	0.2196773
2.675021417327035e-10	5.5966803e-10	-1.7119257e-09	0.84766436	-2.0195755e-17	0.22048327
2.700202569508945e-10	8.230412e-11	-3.2592433e-09	0.85325915	-2.0201407e-17	0.22106956
2.7253835961865046e-10	1.3168659e-10	-5.530837e-09	0.8583863	-2.0205356e-17	0.2215019
2.7500709160462955e-10	8.230412e-10	-6.913546e-09	0.8630105	-2.0207526e-17	0.22158353
2.7752518925574766e-10	2.633732e-09	-8.329177e-09	0.8673929	-2.0207994e-17	0.22213423
2.800432854585455e-10	4.4279616e-09	-8.9546885e-09	0.8715222	-2.020669e-17	0.2208675
2.8251201430489963e-10	4.6748743e-09	-8.427942e-09	0.87540436	-2.0203696e-17	0.21824601
2.850301004031384e-10	5.7283667e-09	-8.427942e-09	0.8792703	-2.0198869e-17	0.21783352
2.8754820053012744e-10	7.5719795e-09	-8.888845e-09	0.8831131	-2.0192169e-17	0.21567672
2.9001692186787746e-10	9.5472785e-09	-8.427942e-09	0.8869265	-2.0183632e-17	0.21565028
2.9253501972450993e-10	1.1061674e-08	-8.164569e-09	0.8909346	-2.0172687e-17	0.21414876
2.950037385202033e-10	1.3432032e-08	-6.716016e-09	0.8950539	-2.0159427e-17	0.21426456
2.9752183427119864e-10	1.5637783e-08	-5.3991505e-09	0.89953095	-2.014285e-17	0.21296982
3.000399401185511e-10	1.758016e-08	-2.897105e-09	0.90437746	-2.0122561e-17	0.21376473
3.025086838707805e-10	1.9621302e-08	-1.3168659e-10	0.9095853	-2.0098272e-17	0.21335188
3.050267908377014e-10	2.116862e-08	3.753068e-09	0.9154691	-2.0068004e-17	0.21321136
3.0754490754025004e-10	2.3143919e-08	8.477325e-09	0.9220347	-2.0030915e-17	0.21433462
3.100136787879669e-10	2.2913467e-08	1.5341488e-08	0.9292097	-1.998642e-17	0.21514747
3.1253181599147256e-10	2.0115127e-08	2.337437e-08	0.93728685	-1.9930665e-17	0.21528088
3.150005887738353e-10	1.4090466e-08	3.2592432e-08	0.94580495	-1.9862678e-17	0.21654646
3.17518737575712e-10	3.4896948e-09	4.134959e-08	0.954644	-1.9773728e-17	0.2155168
3.2003689225049836e-10	-1.4353839e-08	4.648537e-08	0.96251905	-1.9653806e-17	0.2140789
3.2250568387429194e-10	-3.6213812e-08	4.5300187e-08	0.96684325	-1.9494199e-17	0.20776287
3.2502386410554337e-10	-5.929189e-08	3.3448394e-08	0.96259964	-1.9318861e-17	0.20249897
3.275420311510548e-10	-7.175273e-08	5.79421e-09	0.94325405	-1.927623e-17	0.21206355
3.300108317892452e-10	-6.643589e-08	-2.6600691e-08	0.9107216	-1.9436514e-17	0.22516619
3.3252897665665564e-10	-4.773639e-08	-4.9201404e-08	0.8754196	-1.968054e-17	0.23567005
3.3504717729277165e-10	-2.4279716e-08	-6.209023e-08	0.84716856	-1.988164e-17	0.21530655
3.375162029949069e-10	3.1275567e-09	-6.4228075e-08	0.82582873	-2.0010288e-17	0.2048215
3.4003443301057605e-10	2.7423733e-08	-5.3440065e-08	0.80948997	-2.0082653e-17	0.20608394
3.425029075226921e-10	4.1876337e-08	-3.670044e-08	0.7983333	-2.0115797e-17	0.2093723
3.450208923513512e-10	4.5798128e-08	-1.667893e-08	0.79137254	-2.0128006e-17	0.2114135
3.4753902131886447e-10	4.0699387e-08	-1.2098705e-09	0.7881259	-2.0130112e-17	0.21291652
3.5000775769367943e-10	3.1440173e-08	8.143993e-09	0.78790486	-2.0129238e-17	0.21324742
3.525258290264572e-10	2.2650093e-08	1.2460844e-08	0.7901186	-2.0128927e-17	0.21265516
3.550439097034855e-10	1.6724197e-08	1.2958784e-08	0.7941341	-2.01307e-17	0.213858
3.5751263513526806e-10	1.32674245e-08	1.2402202e-08	0.7993279	-2.0134843e-17	0.21437329
3.6003074124442885e-10	1.0156328e-08	1.1403236e-08	0.80558264	-2.0141332e-17	0.21483062
3.6254888789815135e-10	7.835352e-09	1.0907354e-08	0.8124904	-2.0149617e-17	0.21582067
3.6501765338150863e-10	5.79421e-09	1.0096658e-08	0.81956065	-2.0158846e-17	0.2169118
3.675357704539707e-10	4.6419526e-09	8.004076e-09	0.8267695	-2.0168682e-17	0.21711278
3.7000450934351984e-10	3.6213814e-09	5.7036758e-09	0.83361924	-2.0178067e-17	0.21901603
3.7252262936380035e-10	4.1810493e-09	3.4896948e-09	0.84024495	-2.0186837e-17	0.21902509
3.750407491471007e-10	4.4444226e-09	2.6831144e-09	0.84642404	-2.0194357e-17	0.22056939
3.7750948678668614e-10	6.1563483e-09	1.6131608e-09	0.8520138	-2.0200252e-17	0.22061677
3.8002757745537225e-10	8.098725e-09	1.6460824e-09	0.857245	-2.0204603e-17	0.22162285
3.8254565994146393e-10	9.39913e-09	3.5226164e-09	0.86204714	-2.0207205e-17	0.22123586
3.850143774264652e-10	8.4444025e-09	4.2798143e-09	0.86640954	-2.0208042e-17	0.22216426
3.875324707710082e-10	9.3497485e-09	5.3003855e-09	0.87058955	-2.0207147e-17	0.22131707
3.9000117827578614e-10	9.086375e-09	6.9793895e-09	0.8745035	-2.0204548e-17	0.21878271
3.925192562190415e-10	1.0074024e-08	8.098725e-09	0.87838477	-2.0200141e-17	0.21808022
3.95037337737084e-10	9.942338e-09	9.876494e-09	0.8822266	-2.0193883e-17	0.21633138
3.9750603918726893e-10	9.448513e-09	1.2115167e-08	0.88602316	-2.0185822e-17	0.21570681
4.000241362170233e-10	7.7695095e-09	1.4024622e-08	0.8899973	-2.0175423e-17	0.2146838
4.025422175633515e-10	5.6625233e-09	1.5999921e-08	0.894149	-2.016251e-17	0.21419446
4.050109373791031e-10	3.6213814e-09	1.7185101e-08	0.8984708	-2.0146971e-17	0.21352634
4.0752903092160753e-10	1.3827093e-09	1.8304437e-08	0.9032236	-2.0127599e-17	0.213731
4.1004712696681553e-10	-7.901196e-10	1.9028713e-08	0.90842295	-2.0103907e-17	0.212741
4.125158511328121e-10	-4.0822843e-09	2.1464915e-08	0.9140574	-2.0075525e-17	0.21375686
4.1503396001839575e-10	-9.18514e-09	2.2847624e-08	0.9204575	-2.0040136e-17	0.21459286
4.1750269426814023e-10	-1.6263295e-08	2.396696e-08	0.9274565	-1.9997689e-17	0.21534672
4.200208265684225e-10	-2.5086296e-08	2.1925818e-08	0.93536305	-1.9944577e-17	0.215999
4.225389589983607e-10	-3.4501888e-08	1.5143959e-08	0.9439402	-1.9878636e-17	0.21546857
4.2500772536119417e-10	-4.2863988e-08	4.213971e-09	0.9526377	-1.9796455e-17	0.21663523
4.275258849699052e-10	-4.895449e-08	-1.2115167e-08	0.96089053	-1.9684953e-17	0.21480379
4.3004405248923575e-10	-4.9909218e-08	-3.516032e-08	0.96640193	-1.9531948e-17	0.2097694
4.3251283358493427e-10	-3.9131496e-08	-6.0839206e-08	0.96472657	-1.935439e-17	0.20371403
4.350309965408841e-10	-1.1111056e-08	-7.927533e-08	0.94918925	-1.9266008e-17	0.20845725
4.3754917492505004e-10	2.656777e-08	-7.5588105e-08	0.9183768	-1.9389972e-17	0.2218768
4.4001794555020037e-10	5.3530602e-08	-5.5044996e-08	0.88304	-1.9625487e-17	0.2355457
4.425361258113207e-10	6.821366e-08	-2.9399033e-08	0.8530287	-1.9841504e-17	0.2208207
4.450050824944262e-10	7.117661e-08	-8.641933e-11	0.8303484	-1.9985895e-17	0.20686863
4.4752341826015225e-10	6.097089e-08	2.723032e-08	0.8127924	-2.0070164e-17	0.20486224
4.500412467955991e-10	4.2468926e-08	4.3053287e-08	0.8003487	-2.0110921e-17	0.2082244
4.525098276454954e-10	2.334145e-08	4.6839276e-08	0.7926174	-2.0126434e-17	0.21128677
4.550279205757914e-10	7.0164266e-09	4.225905e-08	0.7885834	-2.0130085e-17	0.21262579
4.575460256002071e-10	-4.0493626e-09	3.35307e-08	0.7877314	-2.0129458e-17	0.21326628
4.600147099661562e-10	-1.0008181e-08	2.577765e-08	0.7894255	-2.0128845e-17	0.21287026
4.6253276209986085e-10	-1.0765379e-08	1.8197442e-08	0.79307985	-2.0130077e-17	0.21356796
4.6500147484983555e-10	-9.218062e-09	1.2879566e-08	0.79801357	-2.013366e-17	0.21439207
4.675195797528133e-10	-7.7695095e-09	9.522587e-09	0.80407166	-2.013966e-17	0.214211
4.700377104032773e-10	-6.3868e-09	7.6913205e-09	0.8108594	-2.0147582e-17	0.21586576
4.725064548470781e-10	-5.2427724e-09	5.6234293e-09	0.8178897	-2.0156616e-17	0.2163472
4.750245754938326e-10	-2.9629483e-09	3.8682937e-09	0.82512194	-2.0166412e-17	0.21739925
4.775426678962721e-10	-3.6213813e-10	3.2180911e-09	0.8321725	-2.0176098e-17	0.21874976
4.800114084571064e-10	1.4156308e-09	3.456773e-09	0.8387558	-2.0184913e-17	0.21860991
4.825294971806102e-10	2.897105e-09	5.135777e-09	0.8450425	-2.0192753e-17	0.2205048
4.850475934773916e-10	4.1481276e-09	6.18927e-09	0.8508513	-2.0199117e-17	0.22010468
4.875163143129639e-10	3.7859897e-09	7.999961e-09	0.85608	-2.0203754e-17	0.22161771
4.900343901923773e-10	3.555538e-09	8.164569e-09	0.8609753	-2.0206762e-17	0.22074667
4.925031048044852e-10	2.2715938e-09	9.744808e-09	0.86541075	-2.0208e-17	0.22209121
4.950211788852169e-10	8.230412e-10	1.0765379e-08	0.869646	-2.0207508e-17	0.22167356
4.975392427460612e-10	-1.3827093e-09	1.1621342e-08	0.87367344	-2.0205255e-17	0.21946384
5.000079283390721e-10	-1.5637783e-09	1.0798301e-08	0.87749654	-2.0201319e-17	0.21823719
5.025260058379253e-10	-7.901196e-10	1.0139868e-08	0.8813411	-2.0195494e-17	0.21689104
5.050440745620984e-10	-8.5596286e-10	1.139089e-08	0.8852007	-2.0187727e-17	0.21567143
5.075127681355281e-10	-2.732497e-09	1.3761249e-08	0.8890685	-2.0178034e-17	0.21510279
5.100308565246432e-10	-6.551408e-09	1.4748899e-08	0.8931723	-2.0165729e-17	0.21399865
5.125489255626402e-10	-1.0304476e-08	1.3892936e-08	0.89751625	-2.0150578e-17	0.21389478
5.150176106269167e-10	-1.3300346e-08	1.1884715e-08	0.90209234	-2.0132416e-17	0.21351142
5.175357080778014e-10	-1.5209801e-08	1.0205711e-08	0.9071795	-2.0109798e-17	0.21302763
5.200044288790217e-10	-1.698757e-08	8.032882e-09	0.9126795	-2.0082713e-17	0.21397227
5.225225332048374e-10	-1.998344e-08	5.135777e-09	0.9189188	-2.0048942e-17	0.21441308
5.250406417735087e-10	-2.3901118e-08	2.1069855e-09	0.92588794	-2.0007552e-17	0.21499665
5.275093695712833e-10	-2.6436084e-08	-4.016441e-09	0.9334744	-1.9957822e-17	0.21587828
5.300274878370275e-10	-2.8575991e-08	-1.2641913e-08	0.9419173	-1.9895191e-17	0.21649015
5.325456342203839e-10	-2.6666536e-08	-2.4098647e-08	0.95077556	-1.9815987e-17	0.2161886
5.350143882763169e-10	-1.9687146e-08	-3.7003932e-08	0.9591255	-1.971386e-17	0.21490695
5.375325377155265e-10	-6.5843295e-09	-4.9777533e-08	0.9655623	-1.9571292e-17	0.21162812
5.400013329934864e-10	1.4827087e-08	-5.8205476e-08	0.9660938	-1.9394596e-17	0.20442022
5.425194903185471e-10	4.1662346e-08	-5.3596445e-08	0.95426035	-1.9268486e-17	0.20546347
5.450376440272157e-10	6.3686926e-08	-3.0682976e-08	0.92646503	-1.9345195e-17	0.21881732
5.475064246525034e-10	6.821366e-08	-5.2674637e-10	0.8910613	-1.9568438e-17	0.2346755
5.50024569371022e-10	6.0444144e-08	2.3934039e-08	0.8592591	-1.9797493e-17	0.22709331
5.52542870382323e-10	4.3193204e-08	4.3958632e-08	0.83474606	-1.996055e-17	0.20794135
5.550118733030054e-10	2.0872326e-08	5.3493565e-08	0.8163696	-2.005537e-17	0.20479776
5.575297405051135e-10	2.6337318e-10	5.249357e-08	0.8027887	-2.0104335e-17	0.2069377
5.600476435298003e-10	-1.5283875e-08	4.2538886e-08	0.79393816	-2.0124442e-17	0.21103454
5.625163265945522e-10	-2.3156264e-08	2.9522488e-08	0.7892094	-2.0129846e-17	0.21220425
5.650344098157695e-10	-2.3473136e-08	1.6300332e-08	0.7876748	-2.012971e-17	0.21323895
5.675030851927507e-10	-1.9720067e-08	7.2592234e-09	0.78883487	-2.012887e-17	0.21303467
5.700211291790878e-10	-1.5078115e-08	2.1234463e-09	0.7920975	-2.0129584e-17	0.21324712
5.725391992829184e-10	-1.0880605e-08	4.3826945e-10	0.7968581	-2.0132686e-17	0.21432342
5.750079032781237e-10	-7.802431e-09	-3.8682937e-10	0.8025983	-2.0138086e-17	0.21387035
5.775260031024042e-10	-5.9588183e-09	-7.427947e-10	0.80924714	-2.0145615e-17	0.2157391
5.800441015093119e-10	-4.2798143e-09	-1.378594e-10	0.8163619	-2.01546e-17	0.2156692
5.825128446322792e-10	-2.9629483e-09	3.1069805e-10	0.8234629	-2.016414e-17	0.21748519
5.850309413251599e-10	-8.5596286e-10	1.3004051e-09	0.8305722	-2.0173906e-17	0.2182683
5.875490310758293e-10	6.58433e-10	2.617271e-09	0.8373717	-2.0183094e-17	0.21893124
5.900177365807449e-10	1.4156308e-09	3.7036854e-09	0.8436343	-2.0191067e-17	0.22026978
5.925358395515244e-10	8.5596286e-10	5.267464e-09	0.849555	-2.0197793e-17	0.22008993
5.950045433086702e-10	-3.950598e-10	7.143998e-09	0.85489017	-2.0202811e-17	0.22147693
5.975226000516236e-10	-1.316866e-09	6.9793895e-09	0.85988235	-2.0206222e-17	0.22114675
6.000406583277299e-10	-1.9094557e-09	7.111076e-09	0.8644826	-2.0207877e-17	0.22193529
6.025093443524333e-10	-3.4238514e-09	6.814781e-09	0.8686907	-2.020778e-17	0.22193582
6.050274023216592e-10	-4.411501e-09	6.617251e-09	0.8727587	-2.0205931e-17	0.22012378
6.075454440209907e-10	-3.4238514e-09	4.872404e-09	0.8766804	-2.020231e-17	0.21830022
6.10014126137994e-10	-5.3991505e-09	6.913546e-09	0.8804555	-2.0197003e-17	0.2173567
6.12532165320674e-10	-7.967039e-09	6.913546e-09	0.8843055	-2.0189699e-17	0.21553993
6.150008571919421e-10	-7.934117e-09	3.8189114e-09	0.88814723	-2.0180512e-17	0.21540947
6.175189213239014e-10	-6.650173e-09	2.5020452e-09	0.89220744	-2.0168806e-17	0.2136866
6.200369832221654e-10	-6.4526433e-09	3.6872247e-09	0.89648837	-2.0154353e-17	0.21414904
6.225056709317521e-10	-7.143998e-09	9.218062e-10	0.90098256	-2.0137022e-17	0.2131226
6.250237382607373e-10	-7.736587e-09	3.950598e-10	0.905963	-2.0115431e-17	0.21349259
6.27541824104918e-10	-9.5802e-09	-2.3456675e-10	0.9114473	-2.0089006e-17	0.21390517
6.300105349128513e-10	-1.0929988e-08	-3.4238514e-09	0.9174176	-2.0057351e-17	0.21384226
6.325286230559889e-10	-9.613121e-09	-8.164569e-09	0.92421156	-2.0017863e-17	0.21409939
6.350467201993161e-10	-8.559629e-09	-1.2115167e-08	0.93177843	-1.9969404e-17	0.21507879
6.37515456940707e-10	-6.7818595e-09	-1.5275646e-08	0.93991655	-1.9910899e-17	0.21634415
6.400335927073333e-10	-2.897105e-09	-2.0543109e-08	0.9487243	-1.9836095e-17	0.21629833
6.425023362355662e-10	3.1604783e-09	-2.515214e-08	0.9572563	-1.974072e-17	0.21605907
6.450204681603127e-10	1.3432032e-08	-2.8971051e-08	0.964418	-1.9608278e-17	0.2124619
6.475386213527255e-10	2.7193282e-08	-2.9497798e-08	0.9667559	-1.9433454e-17	0.20561445
6.500073985539509e-10	4.1316667e-08	-2.0806482e-08	0.95842946	-1.9283152e-17	0.20359585
6.525255495552417e-10	4.5859856e-08	1.9752988e-09	0.93408364	-1.9308723e-17	0.21631
6.550436962244619e-10	3.8057426e-08	2.1333229e-08	0.8986744	-1.9515702e-17	0.23181097
6.575124497724657e-10	2.5020453e-08	3.4501888e-08	0.8658909	-1.9749728e-17	0.23288521
6.600307033274371e-10	8.230412e-09	3.95389e-08	0.8398495	-1.992933e-17	0.21095571
6.625491129835523e-10	-6.814781e-09	3.5036866e-08	0.8198894	-2.0039579e-17	0.20515443
6.65017698026521e-10	-1.5835314e-08	2.625913e-08	0.80548334	-2.0096224e-17	0.2068669
6.675355419158701e-10	-1.8847643e-08	1.6460824e-08	0.7955911	-2.0121532e-17	0.21055168
6.700041729322235e-10	-1.858427e-08	9.061684e-09	0.7900115	-2.0129316e-17	0.21161877
6.725222449364693e-10	-1.588881e-08	3.1934e-09	0.78776485	-2.0129933e-17	0.21315247
6.75040290798004e-10	-1.2625452e-08	-1.2921747e-09	0.78839165	-2.0128969e-17	0.21314543
6.775089262486148e-10	-9.415592e-09	-3.6419574e-09	0.79119295	-2.012922e-17	0.21290946
6.800269760655971e-10	-6.0575833e-09	-4.063766e-09	0.7956499	-2.013175e-17	0.21416894
6.825450445858002e-10	-3.2263217e-09	-3.8189114e-09	0.8012864	-2.0136741e-17	0.21415016
6.850137536027416e-10	-9.218062e-10	-3.6254966e-09	0.80765826	-2.0143724e-17	0.21544933
6.875318499766528e-10	8.5596286e-10	-2.006163e-09	0.8146971	-2.0152434e-17	0.21547945
6.900005663070548e-10	1.316866e-09	-2.9835245e-10	0.82179487	-2.0161864e-17	0.2173708
6.925186452542941e-10	1.9094557e-09	9.053453e-11	0.82895374	-2.0171686e-17	0.21758737
6.95036716790023e-10	2.8641833e-09	7.3250667e-10	0.8358362	-2.0181056e-17	0.21910433
6.97505414754002e-10	2.5020452e-09	2.3045155e-09	0.84219927	-2.0189302e-17	0.21985747
7.00023492541999e-10	1.0864144e-09	4.2468926e-09	0.8482314	-2.0196377e-17	0.22039959
7.025415434749178e-10	1.4814742e-10	5.5802194e-09	0.8537791	-2.0201866e-17	0.22122663
7.050102245847235e-10	-1.9752988e-09	5.530837e-09	0.8587674	-2.020559e-17	0.22143188
7.075282777575932e-10	-2.4032802e-09	3.2263217e-09	0.8634513	-2.020765e-17	0.22171152
7.100463125037423e-10	-1.4485525e-09	3.358008e-09	0.8678051	-2.0207943e-17	0.22209175
7.125149906904635e-10	-1.1357969e-09	3.9505976e-09	0.87183535	-2.0206517e-17	0.22069657
7.150330180641575e-10	-1.6131608e-09	9.218062e-10	0.875784	-2.0203304e-17	0.21828152
7.175016920441527e-10	-1.7448474e-09	2.897105e-09	0.8795692	-2.0198414e-17	0.21772869
7.200197318720321e-10	-3.670764e-09	5.069934e-09	0.8834129	-2.0191563e-17	0.21543457
7.225377703768039e-10	-5.892975e-09	3.094635e-09	0.8873102	-2.0182671e-17	0.21559455
7.250064311439243e-10	-4.6419526e-09	-7.2427625e-10	0.8912533	-2.0171736e-17	0.21394166
7.27524472338426e-10	-3.094635e-09	-1.2510226e-09	0.89547586	-2.0157958e-17	0.2142595
7.300425246256356e-10	-1.7119257e-09	-1.9094557e-09	0.8999846	-2.0141052e-17	0.21268454
7.325112121177327e-10	-6.255113e-10	-2.5020452e-09	0.9047722	-2.0120808e-17	0.21373242
7.350292827473173e-10	-6.58433e-10	-8.5596286e-10	0.91013044	-2.0095594e-17	0.21356966
7.375473570352042e-10	-1.876534e-09	-1.0534927e-09	0.91607594	-2.006472e-17	0.21301775
7.400160605180356e-10	-3.0287917e-09	-2.897105e-09	0.92257524	-2.0027707e-17	0.21414006
7.4253414634635e-10	-2.3045155e-09	-5.037012e-09	0.9299619	-1.9981499e-17	0.21486363
7.450028705087084e-10	-1.6131608e-09	-6.5184866e-09	0.9379427	-1.9925823e-17	0.2152234
7.475209750460324e-10	2.3045155e-10	-7.3744495e-09	0.9466684	-1.9855035e-17	0.2167694
7.500390976677629e-10	2.4032802e-09	-8.559629e-09	0.95547783	-1.9763671e-17	0.21549673
7.525078488695532e-10	5.464994e-09	-8.823002e-09	0.9630301	-1.964278e-17	0.2134484
7.550259823077291e-10	1.0139868e-08	-9.3497485e-09	0.96692395	-1.947637e-17	0.20725772
7.575441374315195e-10	1.5308567e-08	-6.716016e-09	0.9614555	-1.930591e-17	0.20316885
7.600128973622753e-10	1.8880565e-08	6.255113e-10	0.9410739	-1.9282455e-17	0.21331106
7.625310424025612e-10	1.6460824e-08	8.164569e-09	0.90715355	-1.9459303e-17	0.22776529
7.650491713931661e-10	1.1522577e-08	1.4156309e-08	0.8723363	-1.9702933e-17	0.23422727
7.675179904530465e-10	4.872404e-09	1.6822963e-08	0.8452749	-1.989427e-17	0.21395655
7.70036384176813e-10	-1.9423774e-09	1.5316797e-08	0.8240108	-2.0019594e-17	0.20486633
7.725050998630553e-10	-5.79421e-09	1.03826645e-08	0.80843973	-2.008638e-17	0.20636454
7.75022889724893e-10	-7.012311e-09	6.3158123e-09	0.79747295	-2.011771e-17	0.20979172
7.775408473173038e-10	-5.156353e-09	3.2386671e-09	0.7909077	-2.0128505e-17	0.21143281
7.800095275879516e-10	-3.9670587e-09	1.716041e-09	0.7880088	-2.0130085e-17	0.21299237
7.825275568564805e-10	-2.255133e-09	6.0082006e-10	0.7880221	-2.0129146e-17	0.213226
7.850455531541856e-10	-1.2016401e-09	5.7612887e-10	0.79043883	-2.0128995e-17	0.2125998
7.875142053225565e-10	-3.6213813e-10	1.368306e-10	0.79450303	-2.0130942e-17	0.21394531
7.900322586599883e-10	8.724237e-10	9.2592135e-11	0.7998961	-2.0135378e-17	0.21433182
7.925009520968178e-10	1.5143958e-09	1.1522577e-10	0.80609727	-2.0141919e-17	0.21500838
7.950190020443547e-10	1.497935e-09	1.0082255e-09	0.81304073	-2.0150315e-17	0.21576639
7.975371072285004e-10	2.1728288e-09	2.2078082e-09	0.82026273	-2.0159791e-17	0.21709314
8.000058048865064e-10	2.2057505e-09	2.016451e-09	0.82731855	-2.0169434e-17	0.21697356
8.02523859675622e-10	2.2057505e-09	2.1069855e-09	0.8342779	-2.0178959e-17	0.21908404
8.05041918871293e-10	2.2715938e-09	2.633732e-09	0.84086293	-2.0187622e-17	0.21932225
8.075105973984576e-10	2.0082205e-09	4.0493626e-09	0.84688056	-2.0194877e-17	0.2205544
8.100286443520144e-10	9.876494e-10	4.213971e-09	0.8525399	-2.0200746e-17	0.22081417
8.125466855516235e-10	5.925897e-10	3.753068e-09	0.85772675	-2.0204925e-17	0.22158761
8.150153576199562e-10	1.1193361e-09	3.555538e-09	0.86240137	-2.0207334e-17	0.22137488
8.17533380103108e-10	6.255113e-10	5.432072e-09	0.8668238	-2.0208034e-17	0.22216426
8.200020322097124e-10	-5.2674637e-10	5.6625233e-09	0.8709024	-2.0207005e-17	0.22117826
8.22520050058951e-10	-1.316866e-09	4.938247e-09	0.874882	-2.0204206e-17	0.21844661
8.250380707145408e-10	-6.255113e-10	3.358008e-09	0.8787563	-2.0199618e-17	0.21798792
8.275067261835564e-10	3.4567732e-10	2.7654186e-09	0.88252246	-2.019332e-17	0.21612413
8.300247445576147e-10	2.6337318e-10	3.1604783e-09	0.88640094	-2.018492e-17	0.2156951
8.325427769992928e-10	1.975299e-10	4.7407176e-09	0.8903887	-2.0174295e-17	0.2144747
8.350114369544526e-10	-1.4485525e-09	5.069934e-09	0.8944777	-2.0161399e-17	0.21423261
8.375294754379972e-10	-3.0287917e-09	4.7407176e-09	0.8989124	-2.0145267e-17	0.21331443
8.400475237490995e-10	-3.7201462e-09	3.9505976e-09	0.9037037	-2.0125521e-17	0.21376866
8.425161908875142e-10	-4.312736e-09	2.6995752e-09	0.90884376	-2.0101882e-17	0.21298534
8.450342469375653e-10	-3.9835193e-09	2.436202e-09	0.9146438	-2.0072421e-17	0.21357106
8.475029482108582e-10	-4.7736393e-09	2.5678886e-09	0.92097867	-2.003711e-17	0.21455814
8.5002101626191e-10	-6.2551133e-09	2.633732e-09	0.9281849	-1.9993036e-17	0.21534199
8.525391162536373e-10	-7.7695095e-09	6.58433e-10	0.93616354	-1.9938841e-17	0.21581037
8.550078262381533e-10	-8.921766e-09	-1.8436124e-09	0.9446176	-1.987292e-17	0.21586075
8.575259387636434e-10	-9.086375e-09	-5.79421e-09	0.953481	-1.9787138e-17	0.21637692
8.600440695386224e-10	-7.3744495e-09	-1.0139868e-08	0.9615899	-1.9672216e-17	0.21471933
8.625128136497002e-10	-3.670764e-09	-1.4353839e-08	0.96660197	-1.9518385e-17	0.20904225
8.650309585530745e-10	2.99587e-09	-1.817275e-08	0.96393496	-1.9338824e-17	0.20317505