# t (s)	mx ()	my ()	mz ()	E_total (J)	MaxAngle (rad)
0	2.648217e-10	4.4532206e-10	0.99524015	-1.2847277e-16	0.26547533
2.505905903941142e-12	2.2134351e-10	3.6100073e-10	0.99263203	-1.2838002e-16	0.23467395
5.020834984393429e-12	3.0566485e-10	4.611323e-10	0.9894911	-1.2812669e-16	0.22466107
7.533102782578896e-12	1.3438713e-10	7.58892e-10	0.9863576	-1.2764086e-16	0.22704723
1.0041950871236801e-11	-6.749001e-10	8.432134e-10	0.9835844	-1.2681891e-16	0.23890099
1.2501357026216633e-11	-1.4756234e-09	-4.4268703e-10	0.9801194	-1.255422e-16	0.2505374
1.500976640075e-11	5.375485e-10	-4.063234e-09	0.97059053	-1.2356315e-16	0.26282483
1.7518010389029905e-11	1.3997342e-08	-8.642937e-09	0.9421399	-1.2138551e-16	0.3137952
2.0025779014037737e-11	7.069817e-08	2.5612605e-09	0.8847547	-1.2124007e-16	0.17386763
2.2534932444502316e-11	1.0172579e-07	1.6439499e-07	0.82142323	-1.2126636e-16	0.11241481
2.5048778719774935e-11	-1.7191539e-07	3.475093e-07	0.7529645	-1.1769416e-16	0.14047915
2.7528884658378314e-11	-5.7954054e-07	1.6070592e-07	0.67218494	-1.1103162e-16	0.21295121
3.000839328585857e-11	-7.204626e-07	2.7360164e-07	0.58521307	-1.02780884e-16	0.35415754
3.2531867819118556e-11	-8.64104e-07	1.0228179e-06	0.51913774	-1.04694516e-16	0.33755663
3.500426544545643e-11	-9.715702e-07	8.194348e-07	0.48834428	-1.1224044e-16	0.2705328
3.7525456522648615e-11	-1.0858586e-06	2.997123e-07	0.47186235	-1.1679764e-16	0.22973119
4.004693059560761e-11	-1.0120049e-06	-1.5803927e-07	0.45868385	-1.1889243e-16	0.20515122
4.251917183963689e-11	-8.0078127e-07	-4.1285836e-07	0.44815814	-1.1976194e-16	0.20482883
4.503996531450716e-11	-5.6797006e-07	-4.974537e-07	0.43994436	-1.2012836e-16	0.20802103
4.750861279344318e-11	-3.8870027e-07	-4.781125e-07	0.4342172	-1.2026944e-16	0.21122794
5.002697600160979e-11	-2.640786e-07	-4.1948812e-07	0.430423	-1.2031803e-16	0.21228205
5.25452810438494e-11	-1.7979417e-07	-3.5997832e-07	0.42832157	-1.2032704e-16	0.21299323
5.501403385108594e-11	-1.1720139e-07	-3.1241055e-07	0.4275533	-1.2032276e-16	0.21296982
5.753211162354096e-11	-6.306709e-08	-2.7257926e-07	0.4277703	-1.2031632e-16	0.2129371
6.000080036525652e-11	-1.7523028e-08	-2.3628947e-07	0.42872325	-1.2031212e-16	0.21282737
6.251885494948796e-11	1.9899835e-08	-1.9817622e-07	0.4302491	-1.2031126e-16	0.21326827
6.503690542016022e-11	4.7446562e-08	-1.591776e-07	0.4321519	-1.2031371e-16	0.21429484
6.750558026728867e-11	6.486419e-08	-1.2232918e-07	0.43425652	-1.2031886e-16	0.21489492
7.002360225821004e-11	7.4392496e-08	-8.7430685e-08	0.4365344	-1.203262e-16	0.21514468
7.25416003387958e-11	7.800251e-08	-5.689582e-08	0.43882808	-1.2033491e-16	0.21647295
7.501022543125615e-11	7.763887e-08	-3.089323e-08	0.4410032	-1.2034409e-16	0.21715787
7.75282195879652e-11	7.436088e-08	-8.548075e-09	0.44308674	-1.2035356e-16	0.21748297
8.004618713746281e-11	6.911714e-08	9.733844e-09	0.44498888	-1.2036275e-16	0.21880853
8.251479290523754e-11	6.21659e-08	2.3604704e-08	0.44664404	-1.2037114e-16	0.21963517
8.503274264788267e-11	5.419227e-08	3.39288e-08	0.44810098	-1.2037893e-16	0.2199359
8.75013085707267e-11	4.5876078e-08	4.0100065e-08	0.44930336	-1.2038578e-16	0.22007765
9.001925540324467e-11	3.774434e-08	4.296699e-08	0.45031264	-1.2039196e-16	0.22089851
9.253718287882261e-11	3.0050018e-08	4.3736424e-08	0.45112222	-1.203973e-16	0.22149077
9.500573362351012e-11	2.2856351e-08	4.2018375e-08	0.45174375	-1.2040187e-16	0.22188547
9.752366716040827e-11	1.6606034e-08	3.7470294e-08	0.452226	-1.2040584e-16	0.2221475
1.0004156863808962e-10	1.31646685e-08	3.144659e-08	0.45258042	-1.204092e-16	0.22231922
1.0251010131914164e-10	1.1646884e-08	2.5986783e-08	0.45282727	-1.2041193e-16	0.22241516
1.0502800431165046e-10	1.0044779e-08	2.2866892e-08	0.45299825	-1.2041418e-16	0.2224719
1.075458921109089e-10	6.687736e-09	2.0621837e-08	0.45310614	-1.2041603e-16	0.22249863
1.1001440616619647e-10	3.3833936e-09	1.8150168e-08	0.4531658	-1.2041746e-16	0.2225062
1.1253228370881653e-10	6.6403055e-10	1.446111e-08	0.45319206	-1.2041857e-16	0.22250216
1.150007937374503e-10	-2.6350416e-10	8.126468e-09	0.45319387	-1.2041943e-16	0.22249
1.175186562230734e-10	2.1133035e-09	3.6943286e-09	0.45317954	-1.2042007e-16	0.22247379
1.200365270576539e-10	4.41106e-09	3.15151e-09	0.453155	-1.2042053e-16	0.22245568
1.2250500640363692e-10	4.042154e-09	5.865603e-09	0.4531257	-1.2042082e-16	0.22243677
1.2502287591432046e-10	6.745707e-10	7.762833e-09	0.45309362	-1.2042103e-16	0.22241813
1.27540732277945e-10	-2.592881e-09	5.5599383e-09	0.4530617	-1.2042115e-16	0.22239949
1.3000921371959523e-10	-3.5098757e-09	1.5810251e-09	0.4530321	-1.2042123e-16	0.22238354
1.3252705628725004e-10	-1.3122508e-09	-1.828719e-09	0.45300442	-1.2042123e-16	0.22236896
1.350448919143934e-10	1.6389959e-09	-2.1607343e-09	0.45297995	-1.2042122e-16	0.22235434
1.3751336195798588e-10	2.7984144e-09	-1.581025e-11	0.45295912	-1.2042119e-16	0.22234327
1.400312039946863e-10	1.955201e-09	2.0447923e-09	0.45294118	-1.2042115e-16	0.22233245
1.4254903510114975e-10	-1.581025e-11	2.4400486e-09	0.45292628	-1.204211e-16	0.22232354
1.4501749070487546e-10	-1.0276663e-09	1.4018422e-09	0.45291442	-1.2042106e-16	0.22231679
1.4753533225598847e-10	-6.2186983e-10	2.0026318e-10	0.45290464	-1.20421e-16	0.22230975
1.5000378775365343e-10	-1.0540167e-11	-3.0566485e-10	0.45289722	-1.2042095e-16	0.22230488
1.525216108744578e-10	5.375485e-10	-4.2160667e-11	0.45289138	-1.2042093e-16	0.22230083
1.550394374928768e-10	4.216067e-10	6.3241e-10	0.45288712	-1.2042089e-16	0.22229731
1.5750789043304755e-10	3.6890584e-11	8.537535e-10	0.45288402	-1.2042086e-16	0.22229408
1.6002571409703993e-10	-4.3741694e-10	1.1172577e-09	0.45288175	-1.2042083e-16	0.22229218
1.6254353518554953e-10	-3.5836567e-10	9.380748e-10	0.45288035	-1.2042082e-16	0.22229002
1.6501199364400828e-10	-4.1106651e-10	8.1159285e-10	0.45287958	-1.2042081e-16	0.22228865
1.6752980212355433e-10	1.05401674e-10	7.1673134e-10	0.452879	-1.2042078e-16	0.22228731
1.7004762459748256e-10	5.2700837e-11	1.1225277e-09	0.45287883	-1.204208e-16	0.2222865
1.725160800502084e-10	1.581025e-11	1.1277979e-09	0.45287892	-1.2042078e-16	0.22228622
1.7503389649868947e-10	-1.581025e-10	1.4071123e-09	0.4528791	-1.2042076e-16	0.22228542
1.7750234480824447e-10	-3.5836567e-10	1.5546746e-09	0.4528794	-1.2042076e-16	0.22228462
1.8002016515998904e-10	-6.3768013e-10	1.4703533e-09	0.4528797	-1.2042077e-16	0.22228515
1.825379751825974e-10	-7.694322e-10	1.2911705e-09	0.45288	-1.2042076e-16	0.22228433
1.8500642314144962e-10	-1.1067175e-09	1.1541483e-09	0.4528803	-1.2042076e-16	0.22228406
1.8752423681306057e-10	-8.695638e-10	1.2279294e-09	0.4528806	-1.2042077e-16	0.22228406
1.900420569440911e-10	-9.1699454e-10	1.1172577e-09	0.45288086	-1.2042077e-16	0.22228406
1.9251050759922595e-10	-1.0065859e-09	9.644253e-10	0.45288113	-1.2042076e-16	0.22228406
1.9502832679678335e-10	-8.5902363e-10	6.798408e-10	0.45288134	-1.2042076e-16	0.2222838
1.9754612885060982e-10	-8.432134e-10	5.849793e-10	0.45288152	-1.2042076e-16	0.22228406
2.0001457811871663e-10	-5.270083e-10	4.795776e-10	0.4528816	-1.2042076e-16	0.2222838
2.0253238740365658e-10	-2.8458452e-10	5.3227844e-10	0.45288172	-1.2042076e-16	0.2222838
2.0500083561833288e-10	5.2700837e-11	1.011856e-09	0.45288184	-1.2042076e-16	0.2222838
2.0751865726889012e-10	5.2700837e-11	1.1277979e-09	0.45288193	-1.2042076e-16	0.2222838
2.1003646413709757e-10	2.3188368e-10	1.133068e-09	0.45288193	-1.2042076e-16	0.22228433
2.1250491270954184e-10	2.1080335e-10	1.2859004e-09	0.45288202	-1.2042076e-16	0.22228433
2.1502272735361397e-10	2.1607342e-10	1.5494046e-09	0.45288202	-1.2042076e-16	0.2222838
2.1754053966706638e-10	1.5283243e-10	1.6548062e-09	0.45288202	-1.2042074e-16	0.22228406
2.2000897968352698e-10	7.378117e-11	1.5546746e-09	0.45288208	-1.2042076e-16	0.22228433
2.225268111481645e-10	1.4756234e-10	1.4756234e-09	0.45288208	-1.2042076e-16	0.22228433
2.2504462227852246e-10	2.6350418e-11	1.4334627e-09	0.4528821	-1.2042076e-16	0.22228406
2.275130553538607e-10	9.48615e-11	1.454543e-09	0.45288208	-1.2042076e-16	0.22228406
2.300308723383716e-10	-5.2700837e-11	1.3280611e-09	0.4528821	-1.2042077e-16	0.22228406
2.3254868940207603e-10	2.8985458e-10	1.3017106e-09	0.4528821	-1.2042076e-16	0.2222838
2.350171249850485e-10	3.267452e-10	1.1646885e-09	0.4528821	-1.2042076e-16	0.22228406
2.3753494039828275e-10	1.4756234e-10	9.907757e-10	0.45288208	-1.2042076e-16	0.22228433
2.4000338367250734e-10	4.2160667e-11	1.0540167e-09	0.45288208	-1.2042076e-16	0.22228462
2.4252120182335115e-10	1.5283243e-10	1.1488782e-09	0.45288208	-1.2042076e-16	0.22228462
2.450390226464618e-10	1.6864267e-10	1.1172577e-09	0.45288208	-1.2042076e-16	0.22228433
2.475074645149411e-10	1.2121192e-10	1.0434765e-09	0.45288202	-1.2042076e-16	0.22228406
2.5002527423074623e-10	1.633726e-10	9.328048e-10	0.45288202	-1.2042076e-16	0.22228406
2.5254310102635494e-10	1.3175208e-10	9.644253e-10	0.45288202	-1.2042076e-16	0.22228433
2.550115303040368e-10	2.9512467e-10	1.1067175e-09	0.45288208	-1.2042076e-16	0.22228433
2.575293372974107e-10	2.6350418e-11	1.2753603e-09	0.45288208	-1.2042076e-16	0.22228433
2.60047159396976e-10	-1.4229226e-10	1.0909073e-09	0.45288208	-1.2042076e-16	0.22228462
2.6251560414678797e-10	-3.3728534e-10	8.695638e-10	0.45288208	-1.2042076e-16	0.22228406
2.650334232195148e-10	-4.0579642e-10	8.4848345e-10	0.45288202	-1.2042076e-16	0.22228433
2.6750188055787703e-10	-1.1594184e-10	8.1686297e-10	0.45288202	-1.2042076e-16	0.22228433
2.7001968654661687e-10	3.16205e-11	7.5362194e-10	0.45288202	-1.2042076e-16	0.22228406
2.7253750352405985e-10	1.8445293e-10	8.2213303e-10	0.45288208	-1.2042076e-16	0.22228433
2.750059520199613e-10	1.581025e-10	1.075097e-09	0.45288202	-1.2042076e-16	0.22228433
2.7752375843424097e-10	2.2134351e-10	1.2015791e-09	0.45288208	-1.2042076e-16	0.22228406
2.8004156965843356e-10	2.1607342e-10	1.25955e-09	0.45288202	-1.2042076e-16	0.22228433
2.8251001791104317e-10	1.581025e-10	1.3438713e-09	0.45288202	-1.2042076e-16	0.22228406
2.850278359206906e-10	-9.48615e-11	1.4650833e-09	0.45288208	-1.2042076e-16	0.22228462
2.8754563863604614e-10	-1.3175208e-10	1.2226594e-09	0.45288202	-1.2042076e-16	0.22228433
2.900140969242231e-10	-1.7391276e-10	1.322791e-09	0.45288202	-1.2042076e-16	0.22228462
2.925319083561133e-10	-1.05401674e-10	1.2964405e-09	0.45288208	-1.2042076e-16	0.22228462
2.950003565863353e-10	-1.6864267e-10	1.4071123e-09	0.45288202	-1.2042076e-16	0.22228433
2.9751815952385384e-10	-1.9499309e-10	1.1594183e-09	0.45288202	-1.2042076e-16	0.22228433
3.000359780082813e-10	1.581025e-11	9.011843e-10	0.45288202	-1.2042076e-16	0.22228406
3.025044089533692e-10	-8.4321335e-11	1.0223962e-09	0.45288202	-1.2042076e-16	0.22228462
3.0502222787939507e-10	-2.1080334e-11	1.1963089e-09	0.45288202	-1.2042076e-16	0.22228433
3.0754003956008997e-10	-1.5283243e-10	1.1488782e-09	0.45288202	-1.2042076e-16	0.22228462
3.1000847977418414e-10	-6.8511086e-11	1.0645569e-09	0.45288202	-1.2042076e-16	0.22228406
3.125263026677792e-10	-2.6350416e-10	1.075097e-09	0.45288202	-1.2042076e-16	0.22228462
3.150441022091284e-10	-2.6877425e-10	1.1172577e-09	0.45288202	-1.2042076e-16	0.22228462
3.1751256039594696e-10	-2.6350416e-10	1.1014475e-09	0.45288202	-1.2042076e-16	0.22228406
3.2003037023593117e-10	-2.7404434e-10	1.1119876e-09	0.45288202	-1.2042076e-16	0.22228406
3.225481984402598e-10	-2.1607342e-10	1.1488782e-09	0.45288202	-1.2042077e-16	0.22228406
3.2501664172539397e-10	-2.6350418e-11	1.0961774e-09	0.45288202	-1.2042076e-16	0.22228433
3.275344573007979e-10	-8.959142e-11	1.0961774e-09	0.45288202	-1.2042077e-16	0.22228433
3.3000290166663746e-10	-1.1594184e-10	1.1436081e-09	0.45288202	-1.2042076e-16	0.22228433
3.325207186504802e-10	-1.4756234e-10	9.960458e-10	0.45288202	-1.2042076e-16	0.22228488
3.3503852587343956e-10	-2.0553326e-10	8.906441e-10	0.45288202	-1.2042076e-16	0.22228488
3.375069619053288e-10	-4.743075e-11	8.010527e-10	0.45288202	-1.2042077e-16	0.22228433
3.4002476930088435e-10	6.8511086e-11	1.0329364e-09	0.45288202	-1.2042076e-16	0.22228433
3.4254258171087457e-10	7.378117e-11	8.8537405e-10	0.45288202	-1.2042076e-16	0.22228406
3.4501103936391725e-10	7.378117e-11	1.1014475e-09	0.45288202	-1.2042076e-16	0.22228462
3.4752884428139177e-10	0	1.1594183e-09	0.45288202	-1.2042076e-16	0.2222838
3.500466557793203e-10	-2.3715377e-10	1.2911705e-09	0.45288202	-1.2042074e-16	0.22228462
3.525151022543538e-10	-3.9525627e-10	1.0856372e-09	0.45288202	-1.2042076e-16	0.22228488
3.550329190658458e-10	-6.3241e-11	1.0329364e-09	0.45288202	-1.2042076e-16	0.22228462
3.5750135247662365e-10	4.2160667e-11	1.011856e-09	0.45288202	-1.2042076e-16	0.22228406
3.600191648131097e-10	-4.743075e-11	1.0803671e-09	0.45288202	-1.2042076e-16	0.22228433
3.625369826553817e-10	-4.743075e-11	1.1857688e-09	0.45288202	-1.2042076e-16	0.2222838
3.6500542147817515e-10	-1.4229226e-10	1.2542799e-09	0.45288202	-1.2042076e-16	0.22228462
3.675232349873899e-10	-2.7404434e-10	1.0961774e-09	0.45288202	-1.2042076e-16	0.22228406
3.700410485364498e-10	-2.2134351e-10	1.0223962e-09	0.45288202	-1.2042076e-16	0.22228406
3.725095000520204e-10	-4.2160667e-11	8.5902363e-10	0.45288202	-1.2042076e-16	0.22228462
3.7502730959380015e-10	1.4229226e-10	7.483519e-10	0.45288202	-1.2042076e-16	0.22228462
3.775451212020751e-10	2.1080335e-10	7.7997236e-10	0.45288202	-1.2042076e-16	0.22228462
3.8001357073273256e-10	1.26482e-10	1.0065859e-09	0.45288202	-1.2042076e-16	0.22228462
3.8253138274209253e-10	2.8985458e-10	1.2437397e-09	0.45288208	-1.2042076e-16	0.22228406
3.850491925325694e-10	-6.3241e-11	1.3333311e-09	0.45288202	-1.2042076e-16	0.22228433
3.8751763568165533e-10	-1.581025e-11	1.2279294e-09	0.45288202	-1.2042076e-16	0.22228406
3.9003544660342283e-10	9.48615e-11	1.2121192e-09	0.45288202	-1.2042076e-16	0.22228433
3.9250389780231464e-10	5.797092e-11	1.1225277e-09	0.45288202	-1.2042076e-16	0.22228488
3.9502170078707085e-10	0	1.2068492e-09	0.45288202	-1.2042076e-16	0.22228433
3.9753951756972675e-10	1.5283243e-10	1.2121192e-09	0.45288202	-1.2042076e-16	0.22228462
4.000079595864003e-10	4.743075e-11	1.2490098e-09	0.45288202	-1.2042076e-16	0.22228515
4.025257595064195e-10	1.3702217e-10	1.1488782e-09	0.45288202	-1.2042077e-16	0.22228433
4.0504357432492925e-10	1.581025e-11	1.0171262e-09	0.45288202	-1.2042076e-16	0.22228462
4.0751202300330956e-10	-3.6890584e-11	1.0382064e-09	0.45288202	-1.2042076e-16	0.22228406
4.1002983000490854e-10	-1.581025e-10	1.0382064e-09	0.45288202	-1.2042076e-16	0.22228406
4.1254763834372217e-10	-1.6864267e-10	1.0540167e-09	0.45288202	-1.2042076e-16	0.22228433
4.150160773134053e-10	-2.6350416e-10	8.5902363e-10	0.45288202	-1.2042076e-16	0.22228406
4.175338921075865e-10	-1.4229226e-10	1.0856372e-09	0.45288202	-1.2042076e-16	0.22228433
4.200023440611965e-10	-1.5283243e-10	9.644253e-10	0.45288202	-1.2042076e-16	0.22228515
4.225201421106082e-10	-8.4321335e-11	1.0223962e-09	0.45288208	-1.2042076e-16	0.22228462
4.250379503094231e-10	-6.8511086e-11	1.1436081e-09	0.45288202	-1.2042076e-16	0.22228462
4.2750639441568176e-10	4.2160667e-11	1.25955e-09	0.45288202	-1.2042076e-16	0.22228433
4.3002421342554126e-10	-6.8511086e-11	1.3175209e-09	0.45288202	-1.2042076e-16	0.22228406
4.32542019904628e-10	-3.3201528e-10	1.4176524e-09	0.45288202	-1.2042076e-16	0.22228406
4.3501046029108487e-10	-3.214751e-10	1.133068e-09	0.45288208	-1.2042076e-16	0.2222838
4.375282766479265e-10	-3.0039476e-10	8.695638e-10	0.45288202	-1.2042076e-16	0.22228433
4.4004608036188346e-10	-1.05401674e-10	8.063228e-10	0.45288202	-1.2042076e-16	0.22228433
4.4251451788801333e-10	3.6890584e-11	8.3794327e-10	0.45288202	-1.2042076e-16	0.22228462
4.4503232841972557e-10	-2.6350418e-11	9.486151e-10	0.45288202	-1.2042076e-16	0.22228488
4.475007671011866e-10	1.0540167e-11	9.43345e-10	0.45288208	-1.2042076e-16	0.22228433
4.50018583201549e-10	-1.4229226e-10	8.959142e-10	0.45288202	-1.2042076e-16	0.22228433
4.525364030142137e-10	-1.0013159e-10	9.855056e-10	0.45288202	-1.2042076e-16	0.22228462
4.5500483981322136e-10	-1.7918284e-10	8.1159285e-10	0.45288202	-1.2042076e-16	0.22228433
4.5752265235602913e-10	-3.6890584e-11	9.117245e-10	0.45288202	-1.2042076e-16	0.22228462
4.600404550821834e-10	0	1.0434765e-09	0.45288202	-1.2042076e-16	0.2222838
4.625088998788622e-10	5.2700837e-11	9.591552e-10	0.45288202	-1.2042076e-16	0.22228488
4.6502670342881985e-10	4.2160667e-11	1.075097e-09	0.45288202	-1.2042076e-16	0.22228488
4.675445099743296e-10	6.8511086e-11	1.2753603e-09	0.45288202	-1.2042076e-16	0.22228433
4.700129525291284e-10	-5.2700834e-12	1.3017106e-09	0.45288202	-1.2042076e-16	0.22228488
4.725307492598212e-10	-1.4756234e-10	9.907757e-10	0.45288202	-1.2042076e-16	0.22228462
4.750485713026116e-10	-1.581025e-10	9.011843e-10	0.45288202	-1.2042076e-16	0.22228406
4.775170102045793e-10	3.6890584e-11	7.4308176e-10	0.45288202	-1.2042077e-16	0.22228406
4.80034814650675e-10	-5.2700834e-12	8.326732e-10	0.45288202	-1.2042076e-16	0.22228433
4.825032584371056e-10	-6.8511086e-11	6.5876044e-10	0.45288202	-1.2042076e-16	0.22228433
4.850210704706957e-10	1.4756234e-10	7.3254164e-10	0.45288202	-1.2042076e-16	0.22228488
4.87538858729789e-10	1.1594184e-10	8.326732e-10	0.45288202	-1.2042076e-16	0.22228462
4.900072955009266e-10	1.05401674e-10	9.644253e-10	0.45288202	-1.2042076e-16	0.22228433
4.925251062434569e-10	-2.3715377e-10	1.2911705e-09	0.45288208	-1.2042076e-16	0.22228488
4.950429256805977e-10	-2.4242383e-10	1.075097e-09	0.45288202	-1.2042076e-16	0.22228462
4.975113585368513e-10	-4.0052636e-10	8.326732e-10	0.45288202	-1.2042076e-16	0.22228433
5.000291689265646e-10	-4.5849727e-10	7.009211e-10	0.45288202	-1.2042076e-16	0.22228406
5.025469742880836e-10	-4.0052636e-10	7.694322e-10	0.45288202	-1.2042076e-16	0.2222838
5.050154033581821e-10	-1.581025e-10	8.642937e-10	0.45288202	-1.2042076e-16	0.22228462
5.075332220547303e-10	-4.5322718e-10	9.644253e-10	0.45288208	-1.2042076e-16	0.22228433
5.100016566430367e-10	-4.2687676e-10	1.0223962e-09	0.45288202	-1.2042076e-16	0.22228462
5.12519468009892e-10	-2.7404434e-10	1.0803671e-09	0.45288208	-1.2042076e-16	0.22228488
5.150372732332976e-10	-2.3715377e-10	1.1277979e-09	0.45288202	-1.2042076e-16	0.22228488
5.175057070628538e-10	-4.7430754e-10	1.3438713e-09	0.45288202	-1.2042076e-16	0.22228406
5.200235222124504e-10	-3.16205e-10	1.2437397e-09	0.45288202	-1.2042076e-16	0.22228406
5.225413203634324e-10	-4.3214685e-10	1.0909073e-09	0.45288202	-1.2042076e-16	0.22228433
5.250097599164832e-10	-2.2661359e-10	9.0645436e-10	0.45288202	-1.2042074e-16	0.22228433
5.275275716635702e-10	-1.4229226e-10	9.591552e-10	0.45288202	-1.2042077e-16	0.22228406
5.300453773753594e-10	-6.8511086e-11	8.432134e-10	0.45288202	-1.2042076e-16	0.22228406
5.325138158150054e-10	2.1080334e-11	8.7483387e-10	0.45288208	-1.2042076e-16	0.22228488
5.350316167069298e-10	-5.797092e-11	8.8010393e-10	0.45288202	-1.2042076e-16	0.22228406
5.375000640432043e-10	3.6890584e-11	7.2200146e-10	0.45288202	-1.2042076e-16	0.2222838
5.400178683668472e-10	-2.1080334e-11	8.010527e-10	0.45288202	-1.2042076e-16	0.22228433
5.425356673992045e-10	-1.2121192e-10	8.695638e-10	0.452882	-1.2042076e-16	0.22228433
5.45004108792899e-10	-2.1080334e-11	6.798408e-10	0.45288202	-1.2042076e-16	0.22228462
5.475219098584894e-10	6.8511086e-11	7.3254164e-10	0.45288202	-1.2042076e-16	0.22228433
5.500397148143439e-10	2.2661359e-10	9.907757e-10	0.45288202	-1.2042077e-16	0.22228462
5.525081669113063e-10	1.10671756e-10	1.0540167e-09	0.45288208	-1.2042076e-16	0.22228488
5.550259737594715e-10	-1.2121192e-10	1.1172577e-09	0.45288202	-1.2042076e-16	0.22228488
5.575437715573761e-10	-1.6864267e-10	1.0434765e-09	0.45288202	-1.2042076e-16	0.22228488
5.600122125776365e-10	-3.16205e-10	8.959142e-10	0.45288202	-1.2042076e-16	0.22228462
5.625300111722205e-10	-1.581025e-10	9.749654e-10	0.45288202	-1.2042076e-16	0.22228433
5.650478261881101e-10	-1.3702217e-10	8.326732e-10	0.45288202	-1.2042076e-16	0.22228406
5.675162619048164e-10	-9.48615e-11	9.644253e-10	0.45288202	-1.2042076e-16	0.22228406
5.7003407095968e-10	5.2700834e-12	1.1225277e-09	0.45288202	-1.2042076e-16	0.22228406
5.725025130259882e-10	-1.6864267e-10	9.696953e-10	0.45288202	-1.2042076e-16	0.22228433
5.75020319001743e-10	-6.3241e-11	9.486151e-10	0.45288202	-1.2042076e-16	0.22228433
5.775381213874233e-10	2.6350418e-11	8.3794327e-10	0.45288202	-1.2042076e-16	0.22228488
5.800065616913757e-10	1.05401674e-10	7.957826e-10	0.45288202	-1.2042076e-16	0.22228515
5.825243698808212e-10	-5.2700834e-12	8.537535e-10	0.45288208	-1.2042076e-16	0.22228433
5.850421694556173e-10	-3.16205e-11	7.957826e-10	0.45288208	-1.2042076e-16	0.22228462
5.875106144753889e-10	1.581025e-11	8.326732e-10	0.45288202	-1.2042076e-16	0.22228433
5.900284145899408e-10	7.378117e-11	8.3794327e-10	0.45288202	-1.2042076e-16	0.22228406
5.925462196506443e-10	2.1080334e-11	8.274031e-10	0.45288208	-1.2042076e-16	0.2222838
5.950146510380324e-10	-5.2700837e-11	1.0329364e-09	0.45288202	-1.2042076e-16	0.22228462
5.975324426013001e-10	-2.6350418e-11	1.069827e-09	0.45288202	-1.2042076e-16	0.22228462
6.000008909278906e-10	-4.2160667e-11	1.1436081e-09	0.45288202	-1.2042076e-16	0.22228488
6.025186969193868e-10	-1.0540167e-11	9.328048e-10	0.45288208	-1.2042076e-16	0.22228406
6.050365026851345e-10	5.2700837e-11	8.537535e-10	0.45288202	-1.2042076e-16	0.22228515
6.075049384462841e-10	1.9499309e-10	8.2213303e-10	0.45288202	-1.2042076e-16	0.22228406
6.100227417946301e-10	8.4321335e-11	1.0329364e-09	0.45288202	-1.2042076e-16	0.22228406
6.125405443821932e-10	1.10671756e-10	8.7483387e-10	0.45288208	-1.2042076e-16	0.22228433
6.150089817016986e-10	-1.05401674e-10	8.959142e-10	0.45288202	-1.2042077e-16	0.22228406
6.175267863546925e-10	-1.633726e-10	8.959142e-10	0.45288202	-1.2042076e-16	0.22228462
6.200445927724375e-10	-4.0052636e-10	7.58892e-10	0.45288202	-1.2042077e-16	0.22228406
6.225130338265486e-10	-2.6350416e-10	7.272715e-10	0.45288202	-1.2042076e-16	0.22228462
6.250308266397632e-10	-3.4782552e-10	7.9051254e-10	0.45288202	-1.2042076e-16	0.22228462
6.275486355336483e-10	-1.581025e-10	1.011856e-09	0.45288208	-1.2042076e-16	0.22228462
6.300170767342094e-10	-6.3241e-11	1.0276663e-09	0.45288202	-1.2042076e-16	0.22228406
6.325348823138232e-10	-3.0566485e-10	9.802356e-10	0.45288202	-1.2042076e-16	0.22228406
6.350032995420103e-10	-8.959142e-11	1.0382064e-09	0.45288202	-1.2042076e-16	0.22228406
6.375211094087626e-10	-1.89723e-10	1.1804987e-09	0.45288202	-1.2042076e-16	0.22228433
6.400389184153088e-10	-3.16205e-10	1.0382064e-09	0.45288202	-1.2042076e-16	0.22228433
6.42507358200435e-10	-3.6363576e-10	1.0382064e-09	0.45288208	-1.2042077e-16	0.22228433
6.450251557699416e-10	-3.4782552e-10	1.0856372e-09	0.45288202	-1.2042076e-16	0.22228488
6.475429529916586e-10	-6.8511086e-11	1.1752286e-09	0.45288208	-1.2042076e-16	0.22228462
6.50011374224308e-10	-2.7404434e-10	1.2015791e-09	0.45288208	-1.2042076e-16	0.22228462
6.525291754854709e-10	-2.6877425e-10	1.1225277e-09	0.45288202	-1.2042076e-16	0.22228433
6.550469894404202e-10	-2.52964e-10	9.960458e-10	0.45288202	-1.2042076e-16	0.22228406
6.575154234328286e-10	9.48615e-11	1.0856372e-09	0.45288202	-1.2042076e-16	0.22228406
6.600332043431907e-10	1.26482e-10	1.133068e-09	0.45288202	-1.2042076e-16	0.22228462
6.625016480714814e-10	2.1080334e-11	1.2898529e-09	0.45288202	-1.2042076e-16	0.22228488
6.650194525188763e-10	1.581025e-11	1.322791e-09	0.45288202	-1.2042076e-16	0.22228488
6.675372553717835e-10	1.05401674e-10	1.1752286e-09	0.45288208	-1.2042076e-16	0.22228406
6.700056909598902e-10	5.797092e-11	9.275347e-10	0.45288202	-1.2042076e-16	0.22228462
6.725235043380027e-10	5.797092e-11	1.075097e-09	0.45288208	-1.2042076e-16	0.22228462
6.750413008648669e-10	1.10671756e-10	1.1119876e-09	0.45288202	-1.2042076e-16	0.22228462
6.775097250416204e-10	2.2661359e-10	1.0013159e-09	0.45288202	-1.2042076e-16	0.22228406
6.800275329297221e-10	6.3241e-11	1.0711445e-09	0.45288202	-1.2042076e-16	0.22228433
6.825453305643144e-10	-1.0540167e-11	1.0803671e-09	0.45288202	-1.2042076e-16	0.22228406
6.85013760543708e-10	5.2700834e-12	9.117245e-10	0.45288202	-1.2042076e-16	0.22228462
6.875315697398182e-10	7.905125e-11	8.959142e-10	0.45288202	-1.2042076e-16	0.22228488
6.900000036699928e-10	-8.4321335e-11	8.5902363e-10	0.45288208	-1.2042076e-16	0.22228433
6.925177984171958e-10	-1.3702217e-10	1.1699586e-09	0.45288202	-1.2042076e-16	0.22228488
6.950356170805595e-10	-6.3241e-11	1.2700901e-09	0.45288202	-1.2042076e-16	0.22228462
6.975040421426086e-10	-1.89723e-10	1.0592868e-09	0.45288202	-1.2042076e-16	0.22228406
7.000218415287388e-10	-1.4756234e-10	8.432134e-10	0.45288202	-1.2042076e-16	0.22228433
7.025396467197388e-10	-2.3188368e-10	9.43345e-10	0.45288202	-1.2042076e-16	0.22228433
7.050080797723652e-10	-7.378117e-11	9.644253e-10	0.45288202	-1.2042076e-16	0.22228433
7.075258778957662e-10	2.4769392e-10	1.1014475e-09	0.45288202	-1.2042076e-16	0.22228433
7.10043691485106e-10	1.26482e-10	1.3649516e-09	0.45288202	-1.2042076e-16	0.22228462
7.125121148489462e-10	-1.581025e-10	1.2279294e-09	0.45288202	-1.2042076e-16	0.22228515
7.15029922487667e-10	-9.48615e-11	9.222646e-10	0.45288202	-1.2042076e-16	0.22228488
7.17547723054576e-10	5.2700834e-12	1.075097e-09	0.45288202	-1.2042076e-16	0.22228488
7.200161550299065e-10	-2.1080335e-10	1.1436081e-09	0.45288202	-1.2042076e-16	0.22228462
7.22533957875763e-10	-1.10671756e-10	1.3017106e-09	0.45288208	-1.2042076e-16	0.22228406
7.250023894808059e-10	-3.1093492e-10	1.1225277e-09	0.45288202	-1.2042076e-16	0.22228462
7.275201920935912e-10	-2.582341e-10	1.0276663e-09	0.45288202	-1.2042076e-16	0.22228433
7.300379922826342e-10	-3.3728534e-10	1.1119876e-09	0.45288208	-1.2042076e-16	0.22228462
7.325064286176124e-10	-1.4229226e-10	9.696953e-10	0.45288208	-1.2042076e-16	0.22228462
7.350242212380216e-10	1.5283243e-10	9.749654e-10	0.45288202	-1.2042076e-16	0.22228433
7.375420170828392e-10	-5.797092e-11	1.2279294e-09	0.45288202	-1.2042076e-16	0.22228515
7.400104537879867e-10	-1.10671756e-10	1.0171262e-09	0.45288202	-1.2042076e-16	0.22228462
7.425282594946389e-10	-1.2121192e-10	1.0961774e-09	0.45288208	-1.2042076e-16	0.22228433
7.450460543291232e-10	-2.4242383e-10	1.011856e-09	0.45288202	-1.2042077e-16	0.22228462
7.475145008686285e-10	-1.9499309e-10	1.0487466e-09	0.45288202	-1.2042076e-16	0.22228406
7.50032302260893e-10	-1.0013159e-10	9.855056e-10	0.45288202	-1.2042076e-16	0.2222838
7.5250072979615e-10	-1.3175208e-10	9.117245e-10	0.45288202	-1.2042076e-16	0.22228488
7.550185304815322e-10	-6.8511086e-11	8.537535e-10	0.45288208	-1.2042076e-16	0.22228515
7.575363333955743e-10	-1.6864267e-10	1.0382064e-09	0.45288202	-1.2042076e-16	0.22228488
7.600047568360193e-10	-1.7391276e-10	1.0171262e-09	0.45288202	-1.2042076e-16	0.22228462
7.625225545757423e-10	-6.8511086e-11	8.642937e-10	0.45288208	-1.2042076e-16	0.22228462
7.650403506361398e-10	5.797092e-11	8.432134e-10	0.45288202	-1.2042076e-16	0.22228488
7.675087740245469e-10	1.10671756e-10	8.010527e-10	0.45288202	-1.2042077e-16	0.2222838
7.700265860192166e-10	1.6864267e-10	8.8537405e-10	0.45288202	-1.2042077e-16	0.22228433
7.725443919153593e-10	-3.6890584e-11	1.1277979e-09	0.45288202	-1.2042076e-16	0.2222838
7.750128283192112e-10	-7.378117e-11	1.0434765e-09	0.45288202	-1.2042076e-16	0.22228433
7.775306237708694e-10	-1.26482e-10	1.0065859e-09	0.45288202	-1.2042076e-16	0.22228515
7.800484156434236e-10	-2.2134351e-10	9.749654e-10	0.45288202	-1.2042076e-16	0.22228433
7.825168508773668e-10	-5.2700837e-11	8.8010393e-10	0.45288202	-1.2042076e-16	0.22228488
7.850346579526797e-10	-1.10671756e-10	7.641621e-10	0.45288202	-1.2042076e-16	0.22228433
7.875030760624174e-10	2.6350418e-11	8.2213303e-10	0.45288202	-1.2042076e-16	0.22228433
7.900208823190712e-10	-1.4756234e-10	8.3794327e-10	0.45288202	-1.2042076e-16	0.22228433
7.925386898232339e-10	-9.48615e-11	1.0223962e-09	0.45288202	-1.2042076e-16	0.22228433
7.950071147062245e-10	-2.4769392e-10	1.1119876e-09	0.45288202	-1.2042076e-16	0.22228406
7.975249177656187e-10	-4.0052636e-10	1.0171262e-09	0.45288202	-1.2042076e-16	0.22228515
8.000427251237096e-10	-3.16205e-10	1.0013159e-09	0.45288202	-1.2042076e-16	0.22228433
8.025111463129081e-10	-6.3241e-11	1.1225277e-09	0.45288202	-1.2042076e-16	0.22228488
8.050289403048094e-10	-3.6890584e-11	1.0625806e-09	0.45288202	-1.2042076e-16	0.22228488
8.075467513551094e-10	-6.8511086e-11	1.2331995e-09	0.45288202	-1.2042076e-16	0.22228433
8.100151792738367e-10	-2.8985458e-10	1.2911705e-09	0.45288202	-1.2042076e-16	0.22228433
8.125329777641755e-10	-4.0052636e-10	1.2490098e-09	0.452882	-1.2042076e-16	0.22228433
8.150014061212158e-10	-3.4782552e-10	1.1804987e-09	0.45288202	-1.2042076e-16	0.22228433
8.175192029845538e-10	-4.5322718e-10	9.802356e-10	0.45288202	-1.2042076e-16	0.22228488
8.200370043270548e-10	-1.633726e-10	1.0065859e-09	0.45288202	-1.2042076e-16	0.22228462
8.225054356450009e-10	-2.52964e-10	1.1541483e-09	0.45288202	-1.2042076e-16	0.22228488
8.250232452230222e-10	-2.52964e-10	8.8010393e-10	0.45288202	-1.2042076e-16	0.22228462
8.27541045598323e-10	-2.1080335e-10	7.7997236e-10	0.45288202	-1.2042076e-16	0.22228433
8.300094640357953e-10	-2.9512467e-10	8.1686297e-10	0.45288202	-1.2042076e-16	0.22228433
8.325272698024227e-10	-1.89723e-10	6.4822026e-10	0.45288202	-1.2042076e-16	0.22228433
8.350450670158983e-10	3.16205e-11	8.5902363e-10	0.45288202	-1.2042076e-16	0.22228433
8.375134914117361e-10	7.905125e-11	1.0276663e-09	0.45288202	-1.2042076e-16	0.22228433
8.400312853461101e-10	4.743075e-11	9.907757e-10	0.45288202	-1.2042076e-16	0.22228462
8.425490736849113e-10	-3.16205e-11	1.0382064e-09	0.45288202	-1.2042076e-16	0.22228488
8.450175028793175e-10	-1.4756234e-10	8.2213303e-10	0.45288202	-1.2042076e-16	0.22228488
8.475353137917618e-10	5.2700837e-11	1.0065859e-09	0.45288208	-1.2042076e-16	0.22228433
8.500037414383386e-10	1.0540167e-11	1.069827e-09	0.45288202	-1.2042076e-16	0.22228433
8.52521544413935e-10	-8.4321335e-11	9.43345e-10	0.45288202	-1.2042076e-16	0.22228488
8.55039332783501e-10	-1.6864267e-10	8.695638e-10	0.45288208	-1.2042076e-16	0.22228462
8.575077776918599e-10	-1.1594184e-10	9.440038e-10	0.45288202	-1.2042076e-16	0.22228433
8.600255706152432e-10	-1.05401674e-10	1.0382064e-09	0.45288202	-1.2042076e-16	0.2222838