# t (s)	mx ()	my ()	mz ()	E_total (J)	MaxAngle (rad)
0	5.69956e-10	0	0.9955557	-1.288494e-16	0.65441734
2.522594068286182e-12	3.8682937e-10	2.6337318e-10	0.99446064	-1.2881943e-16	0.59245133
5.210179237756097e-12	2.8806443e-10	5.2674637e-10	0.9933475	-1.2874984e-16	0.58188456
7.653409852239517e-12	3.2921648e-11	5.2674637e-10	0.9925186	-1.2865231e-16	0.56982106
1.0033329690634833e-11	-2.6337318e-10	5.925897e-10	0.9920471	-1.2852922e-16	0.5808031
1.27646134134544e-11	-8.1481083e-10	1.3168659e-10	0.99202347	-1.2836293e-16	0.58556855
1.512153339719568e-11	-8.5596286e-10	-1.0637807e-09	0.99240696	-1.282035e-16	0.5796418
1.778568273365299e-11	1.5637783e-10	-2.2386721e-09	0.9930829	-1.2799724e-16	0.5761782
2.0145383039224265e-11	2.2715938e-09	-2.436202e-09	0.99353683	-1.2776845e-16	0.57708275
2.2508095996439502e-11	4.2263166e-09	-1.975299e-10	0.9931431	-1.2748685e-16	0.56424826
2.5166773472872386e-11	2.814801e-09	3.9505976e-09	0.99021024	-1.272407e-16	0.5471561
2.7697438125464483e-11	-2.9300267e-09	4.4773443e-09	0.9840802	-1.2723368e-16	0.5534021
3.006316789987113e-11	-6.6337122e-09	-1.4485525e-09	0.97565305	-1.2727978e-16	0.49985677
3.251064894256119e-11	-3.456773e-09	-1.0534928e-08	0.9642383	-1.2729606e-16	0.45297492
3.5194723159186595e-11	1.1028752e-08	-2.0872326e-08	0.9492625	-1.2728991e-16	0.4437104
3.7549914115003073e-11	4.4287848e-08	-1.3827092e-08	0.93598443	-1.2712784e-16	0.48503447
4.021802202096296e-11	6.301204e-08	6.1728095e-08	0.92345154	-1.2644116e-16	0.56230056
4.258996122278024e-11	-3.4172672e-08	1.36559e-07	0.9150875	-1.2517621e-16	0.6126456
4.526806558738274e-11	-2.0704425e-07	6.4526433e-09	0.9063598	-1.2286824e-16	0.63785595
4.765732811379083e-11	-9.481435e-08	-2.4651732e-07	0.89536583	-1.1968115e-16	0.6071182
5.0061461920876876e-11	2.3400708e-07	-1.9338177e-07	0.8757139	-1.1470794e-16	0.54536927
5.280375462900478e-11	1.7013907e-07	2.691674e-07	0.82873344	-1.0612837e-16	0.4673892
5.52730275050365e-11	-5.994374e-07	2.650851e-07	0.74220407	-9.939001e-17	0.41021276
5.772030638050673e-11	-1.3055409e-06	-4.9696257e-07	0.6234316	-1.03249e-16	0.40259123
6.014734570004875e-11	-1.2961912e-06	-4.479978e-07	0.5333382	-1.1217158e-16	0.5391852
6.254283888543388e-11	-8.279136e-07	7.176919e-08	0.48684832	-1.1746763e-16	0.567035
6.525091542116466e-11	-3.40558e-07	1.5532434e-07	0.46096173	-1.195214e-16	0.51956254
6.763891214840696e-11	-1.2395e-07	1.2049323e-08	0.44638193	-1.2011932e-16	0.5136339
7.003911202570552e-11	-1.8436124e-08	-9.94563e-08	0.43569604	-1.2039515e-16	0.51893616
7.272916642063111e-11	3.7909277e-08	-1.3125862e-07	0.42728007	-1.2053865e-16	0.5242629
7.512788127331392e-11	5.629602e-08	-1.05513884e-07	0.42234918	-1.205922e-16	0.5256655
7.752053197536405e-11	5.767873e-08	-6.757168e-08	0.4193874	-1.2061138e-16	0.52482605
8.021555026069157e-11	4.941128e-08	-3.4682955e-08	0.41793403	-1.2061555e-16	0.5231238
8.260829860369616e-11	4.1654115e-08	-1.897933e-08	0.41798502	-1.2061488e-16	0.5227993
8.500228061459557e-11	3.670764e-08	-1.2427923e-08	0.41904664	-1.2061561e-16	0.5238115
8.769551856646916e-11	3.4880486e-08	-7.703666e-09	0.42120153	-1.2062121e-16	0.5252405
9.008944292723415e-11	3.4831103e-08	-2.518506e-09	0.42378685	-1.2063156e-16	0.52767146
9.278235430598691e-11	3.3415475e-08	3.4073906e-09	0.42726067	-1.2064931e-16	0.5308196
9.517617629878162e-11	3.055129e-08	8.921766e-09	0.4307079	-1.2066986e-16	0.5336005
9.756982206774008e-11	2.7003983e-08	1.28723645e-08	0.43437475	-1.2069394e-16	0.5354227
1.0026225062595417e-10	2.2320878e-08	1.5078115e-08	0.43863747	-1.2072385e-16	0.5331974
1.0265573106534694e-10	1.8551349e-08	1.4913507e-08	0.44244882	-1.2075161e-16	0.5316483
1.0504912820100399e-10	1.557194e-08	1.358018e-08	0.4461951	-1.2077938e-16	0.535686
1.0774141471638762e-10	1.2905287e-08	1.158842e-08	0.45024368	-1.208094e-16	0.5404589
1.1013433987038116e-10	1.158842e-08	8.79008e-09	0.45363155	-1.2083423e-16	0.5435935
1.1252765982622217e-10	1.0534928e-08	6.090505e-09	0.45677638	-1.208568e-16	0.5453166
1.1521959481498708e-10	9.711886e-09	3.6872247e-09	0.45998675	-1.2087924e-16	0.54410213
1.176125427681918e-10	9.407361e-09	8.5596286e-10	0.46253407	-1.208964e-16	0.54062843
1.2000520439081045e-10	9.613121e-09	-7.901196e-10	0.46479183	-1.2091112e-16	0.544567
1.22697086570592e-10	1.0156328e-08	-1.8436124e-09	0.46700013	-1.209249e-16	0.54772717
1.2508970518440953e-10	1.0271554e-08	-2.5678886e-09	0.46868944	-1.2093492e-16	0.5491889
1.2778139874754007e-10	1.0839453e-08	-3.1604783e-09	0.47031397	-1.2094402e-16	0.5509802
1.3017379397517875e-10	1.1530807e-08	-2.9629483e-09	0.4715415	-1.2095042e-16	0.5524127
1.3256654328611783e-10	1.1802411e-08	-3.094635e-09	0.47259286	-1.2095548e-16	0.5535013
1.352578192798724e-10	1.2271545e-08	-2.2386721e-09	0.47359502	-1.2095985e-16	0.55463576
1.3765049838531658e-10	1.1720107e-08	-1.5802392e-09	0.47435012	-1.209628e-16	0.5554529
1.4004266677427672e-10	1.1259204e-08	-1.1522577e-09	0.4749976	-1.2096499e-16	0.5559945
1.4273419222676133e-10	1.1242743e-08	-1.4485525e-09	0.47561812	-1.2096677e-16	0.55637735
1.4512618088135354e-10	1.0929988e-08	-9.218062e-10	0.47608918	-1.2096787e-16	0.5567471
1.475186360399667e-10	1.0946448e-08	-7.571979e-10	0.47649693	-1.2096864e-16	0.5570687
1.5020977709802438e-10	1.0090485e-08	-2.6337318e-10	0.4768917	-1.2096918e-16	0.5573294
1.5260204821336838e-10	9.613121e-09	9.876495e-11	0.47719488	-1.2096945e-16	0.5574966
1.5529324808605145e-10	9.267444e-09	1.3168659e-10	0.47749057	-1.2096958e-16	0.5576323
1.576854060648814e-10	8.806541e-09	-6.5843296e-11	0.4777193	-1.2096962e-16	0.55771816
1.600777642256091e-10	8.427942e-09	-4.609031e-10	0.47792053	-1.2096955e-16	0.5577802
1.6276856592982968e-10	8.592551e-09	3.2921648e-11	0.4781188	-1.2096942e-16	0.55782974
1.6516086345717496e-10	8.296255e-09	3.950598e-10	0.47827348	-1.2096928e-16	0.55785984
1.6755295697876713e-10	7.670744e-09	3.950598e-10	0.47841048	-1.2096912e-16	0.55788
1.702442059405031e-10	7.341528e-09	7.2427625e-10	0.47854647	-1.2096892e-16	0.5579149
1.7263605051829813e-10	6.5184866e-09	2.6337318e-10	0.4786531	-1.2096876e-16	0.55795366
1.7502835427928994e-10	6.716016e-09	1.3168659e-10	0.4787482	-1.209686e-16	0.55798596
1.777191178439375e-10	6.3538783e-09	-6.5843296e-11	0.47884285	-1.2096841e-16	0.55801487
1.801114705025183e-10	6.2551133e-09	3.950598e-10	0.47891757	-1.2096824e-16	0.558036
1.8250323619567303e-10	6.2551133e-09	2.6337318e-10	0.47898433	-1.2096811e-16	0.55805326
1.8519441574502382e-10	5.8600533e-09	2.9629485e-10	0.4790511	-1.2096793e-16	0.55807
1.8758658986540379e-10	5.7283667e-09	2.6337318e-10	0.47910383	-1.2096782e-16	0.558082
1.9027754815345518e-10	5.5472977e-09	-1.975299e-10	0.4791567	-1.2096769e-16	0.55809194
1.926695212618327e-10	5.7448277e-09	-1.3168659e-10	0.47919846	-1.2096758e-16	0.5580996
1.9506153277748296e-10	5.3991505e-09	-6.58433e-10	0.47923598	-1.2096749e-16	0.5581065
1.9775242093716329e-10	5.563759e-09	2.4691235e-10	0.47927356	-1.2096737e-16	0.55811334
2.0014467957132834e-10	5.695445e-09	8.230412e-11	0.47930333	-1.209673e-16	0.55811805
2.0253640288168717e-10	5.530837e-09	3.950598e-10	0.4793301	-1.2096721e-16	0.5581219
2.052277251318676e-10	5.0040905e-09	-3.292165e-10	0.47935694	-1.2096714e-16	0.5581247
2.0761947971609227e-10	4.872404e-09	6.5843296e-11	0.47937828	-1.2096708e-16	0.5581277
2.1001158614114201e-10	5.2016205e-09	1.6460824e-11	0.47939745	-1.2096701e-16	0.55813
2.1270238173741083e-10	5.037012e-09	2.6337318e-10	0.47941667	-1.2096696e-16	0.5581328
2.1509466580859265e-10	5.135777e-09	5.925897e-10	0.47943196	-1.2096692e-16	0.5581341
2.1778541886240882e-10	4.839482e-09	0	0.47944728	-1.2096689e-16	0.55813545
2.2017775005036896e-10	4.938247e-09	-6.5843296e-11	0.4794595	-1.2096684e-16	0.5581369
2.2256946061794348e-10	5.1028555e-09	0	0.4794704	-1.2096681e-16	0.558138
2.2526061983567103e-10	4.971169e-09	2.6337318e-10	0.4794814	-1.2096679e-16	0.55813915
2.2765237238210185e-10	4.872404e-09	3.950598e-10	0.47949013	-1.2096676e-16	0.5581393
2.300445898909466e-10	4.855943e-09	7.901196e-10	0.47949806	-1.2096672e-16	0.5581403
2.3273537227760818e-10	4.707796e-09	2.3045155e-10	0.479506	-1.209667e-16	0.55814105
2.3512756578086486e-10	4.872404e-09	-8.230412e-11	0.4795122	-1.2096667e-16	0.55814135
2.37519521851426e-10	4.98763e-09	2.6337318e-10	0.47951785	-1.2096667e-16	0.5581418
2.4021047199419894e-10	4.707796e-09	-1.3168659e-10	0.4795236	-1.2096664e-16	0.5581423
2.4260250863961875e-10	4.7407176e-09	6.5843296e-11	0.47952807	-1.2096664e-16	0.5581427
2.4529341699862615e-10	4.888865e-09	-6.5843296e-11	0.47953257	-1.2096661e-16	0.5581431
2.476853708949693e-10	4.6419526e-09	1.3168659e-10	0.47953624	-1.209666e-16	0.5581432
2.5007756991502457e-10	4.8230215e-09	0	0.47953945	-1.2096658e-16	0.5581436
2.5276836943642797e-10	4.707796e-09	6.58433e-10	0.47954273	-1.2096658e-16	0.5581436
2.551605153266153e-10	4.7736393e-09	2.6337318e-10	0.47954533	-1.2096658e-16	0.55814373
2.5755248255061063e-10	4.7407176e-09	0	0.47954765	-1.2096656e-16	0.5581436
2.602433993782164e-10	4.39504e-09	6.5843296e-11	0.47955003	-1.2096655e-16	0.5581444
2.626353691233944e-10	4.5761093e-09	0	0.4795519	-1.2096654e-16	0.55814534
2.6502743140043357e-10	4.855943e-09	6.5843296e-11	0.47955358	-1.2096655e-16	0.5581451
2.6771828535651463e-10	5.2510027e-09	-1.3168659e-10	0.47955525	-1.2096654e-16	0.5581443
2.701105442419483e-10	5.069934e-09	6.5843296e-11	0.47955662	-1.2096654e-16	0.5581447
2.7250237709520726e-10	4.888865e-09	1.975299e-10	0.4795578	-1.2096654e-16	0.558145
2.751935773744224e-10	4.707796e-09	2.6337318e-10	0.47955906	-1.2096652e-16	0.5581455
2.775853786862522e-10	4.971169e-09	-4.609031e-10	0.47956	-1.2096652e-16	0.55814534
2.8027656120964077e-10	4.938247e-09	-1.4814742e-10	0.47956097	-1.2096654e-16	0.558145
2.8266848720370003e-10	5.1028555e-09	-1.3168659e-10	0.47956178	-1.2096654e-16	0.5581452
2.8506042105243467e-10	4.938247e-09	-4.9382474e-11	0.47956243	-1.2096652e-16	0.5581452
2.8775143743685914e-10	4.872404e-09	4.609031e-10	0.47956315	-1.2096651e-16	0.55814594
2.9014344153052144e-10	5.333307e-09	4.609031e-10	0.4795637	-1.2096651e-16	0.5581455
2.9253546528040204e-10	4.8065605e-09	6.58433e-10	0.47956422	-1.2096651e-16	0.5581452
2.95226469811699e-10	4.5761093e-09	3.950598e-10	0.47956473	-1.2096652e-16	0.55814576
2.976183886544841e-10	4.411501e-09	-6.5843296e-11	0.47956514	-1.2096651e-16	0.5581454
3.000105036264075e-10	4.4773443e-09	-4.609031e-10	0.47956544	-1.2096651e-16	0.5581455
3.027014178737731e-10	4.8065605e-09	1.3168659e-10	0.4795659	-1.2096651e-16	0.5581454
3.050935855262246e-10	4.888865e-09	3.2921648e-11	0.47956613	-1.209665e-16	0.55814564
3.0778444516230514e-10	5.4814544e-09	-2.6337318e-10	0.47956645	-1.2096651e-16	0.55814564
3.1017662835049845e-10	5.5472977e-09	1.4814742e-10	0.47956663	-1.2096651e-16	0.5581454
3.125684789504965e-10	5.464994e-09	-1.3168659e-10	0.4795668	-1.2096651e-16	0.5581455
3.1525954195521237e-10	5.3003855e-09	5.925897e-10	0.47956705	-1.2096651e-16	0.55814534
3.1765167428745215e-10	4.888865e-09	5.432072e-10	0.47956723	-1.2096651e-16	0.55814534
3.200433766693217e-10	4.9053255e-09	3.950598e-10	0.47956738	-1.2096651e-16	0.5581451
3.2273456742671506e-10	4.8065605e-09	2.6337318e-10	0.47956753	-1.209665e-16	0.5581455
3.2512657867203567e-10	5.2510027e-09	6.5843296e-11	0.47956765	-1.209665e-16	0.5581459
3.2751860621794354e-10	5.069934e-09	-1.975299e-10	0.47956777	-1.209665e-16	0.5581461
3.302095270433687e-10	5.2839244e-09	6.58433e-10	0.47956783	-1.209665e-16	0.55814534
3.3260161389070156e-10	5.234542e-09	6.58433e-10	0.47956795	-1.209665e-16	0.5581451
3.352927598442895e-10	5.2180815e-09	2.6337318e-10	0.47956803	-1.209665e-16	0.55814594
3.3768467703281523e-10	4.938247e-09	1.3168659e-10	0.4795681	-1.209665e-16	0.55814636
3.400765457418777e-10	4.839482e-09	-2.3045155e-10	0.47956818	-1.209665e-16	0.55814624
3.42767768295378e-10	5.0205515e-09	5.2674637e-10	0.47956827	-1.209665e-16	0.55814534
3.451596316333962e-10	5.0040905e-09	7.901196e-10	0.4795683	-1.209665e-16	0.55814534
3.4755176522409823e-10	4.9053255e-09	3.950598e-10	0.4795683	-1.209665e-16	0.5581454
3.502426784464586e-10	4.5761093e-09	4.609031e-10	0.47956833	-1.209665e-16	0.55814636
3.5263479056082415e-10	4.59257e-09	1.3168659e-10	0.47956836	-1.209665e-16	0.55814594
3.55026648095657e-10	4.5761093e-09	2.6337318e-10	0.47956845	-1.209665e-16	0.5581454
3.577177866852897e-10	4.872404e-09	3.950598e-10	0.4795685	-1.209665e-16	0.55814564
3.601097479327367e-10	4.5761093e-09	6.58433e-10	0.4795685	-1.209665e-16	0.55814564
3.625018887394989e-10	4.2633537e-09	7.901196e-10	0.4795685	-1.209665e-16	0.55814564
3.651928485259313e-10	4.230432e-09	5.925897e-10	0.47956857	-1.209665e-16	0.5581454
3.67585022695668e-10	4.411501e-09	2.6337318e-10	0.47956857	-1.2096651e-16	0.55814564
3.7027588291410796e-10	4.3621182e-09	-1.6460824e-11	0.47956857	-1.209665e-16	0.5581459
3.726680350709141e-10	4.3785793e-09	0	0.47956857	-1.209665e-16	0.55814564
3.7505990294081316e-10	4.0658237e-09	1.975299e-10	0.4795686	-1.2096648e-16	0.55814564
3.7775104080323967e-10	4.2468926e-09	-2.6337318e-10	0.4795686	-1.209665e-16	0.5581455
3.801430952961948e-10	4.032902e-09	6.5843296e-11	0.4795686	-1.209665e-16	0.5581455
3.8253504062151563e-10	4.5761093e-09	-1.3168659e-10	0.4795686	-1.2096651e-16	0.5581454
3.852260624502203e-10	4.3785793e-09	-2.6337318e-10	0.4795686	-1.209665e-16	0.5581455
3.876181542946199e-10	4.1975103e-09	6.5843296e-11	0.47956866	-1.209665e-16	0.5581459
3.9001029384057837e-10	4.329197e-09	1.975299e-10	0.4795687	-1.209665e-16	0.55814624
3.9270117945992197e-10	4.3621182e-09	6.5843296e-11	0.4795687	-1.2096651e-16	0.5581454
3.9509329468278567e-10	4.460883e-09	4.609031e-10	0.4795687	-1.2096651e-16	0.5581452
3.9778431219733423e-10	4.312736e-09	3.292165e-10	0.4795687	-1.209665e-16	0.55814564
4.0017633208674647e-10	4.4279616e-09	3.292165e-10	0.4795687	-1.209665e-16	0.55814594
4.0256834133072297e-10	4.460883e-09	0	0.4795687	-1.2096651e-16	0.5581461
4.052593139899436e-10	4.411501e-09	1.3168659e-10	0.4795687	-1.2096651e-16	0.5581452
4.076512783675136e-10	4.4444226e-09	3.950598e-10	0.4795687	-1.209665e-16	0.55814534
4.100433861090979e-10	4.872404e-09	1.3168659e-10	0.4795687	-1.2096651e-16	0.55814564
4.12734254020913e-10	4.7242565e-09	1.3168659e-10	0.4795687	-1.2096651e-16	0.55814624
4.151263533040786e-10	4.609031e-09	-1.3168659e-10	0.47956872	-1.2096651e-16	0.55814594
4.175185256884308e-10	4.59257e-09	-6.4197214e-10	0.4795687	-1.2096651e-16	0.55814564
4.2020933039002993e-10	4.7736393e-09	9.876495e-11	0.47956872	-1.2096651e-16	0.55814564
4.226015089282228e-10	4.5761093e-09	1.975299e-10	0.4795687	-1.2096651e-16	0.55814594
4.252924963818235e-10	4.5431876e-09	-3.292165e-10	0.47956872	-1.2096651e-16	0.55814624
4.2768451566535376e-10	4.510266e-09	-5.925897e-10	0.47956872	-1.2096651e-16	0.5581455
4.3007654655317077e-10	4.39504e-09	-3.6213813e-10	0.47956872	-1.2096651e-16	0.5581454
4.3276745665904103e-10	4.8230215e-09	-3.292165e-10	0.47956872	-1.2096651e-16	0.5581459
4.3515967209297406e-10	4.872404e-09	1.3168659e-10	0.47956872	-1.2096651e-16	0.55814576
4.375516948311236e-10	4.6748743e-09	-5.925897e-10	0.47956872	-1.209665e-16	0.5581455
4.4024268463880573e-10	4.6254915e-09	-2.6337318e-10	0.47956872	-1.2096651e-16	0.55814564
4.426348260179939e-10	4.6419526e-09	1.975299e-10	0.47956872	-1.2096651e-16	0.55814564
4.4502667504870836e-10	4.5761093e-09	1.6460824e-10	0.47956872	-1.2096651e-16	0.5581455
4.4771773051886626e-10	4.6419526e-09	-1.3168659e-10	0.47956872	-1.2096651e-16	0.55814564
4.501097694509886e-10	4.6419526e-09	-6.5843296e-11	0.47956872	-1.209665e-16	0.5581454
4.5250188251699143e-10	4.658413e-09	0	0.47956872	-1.209665e-16	0.5581459
4.551928228879675e-10	4.7407176e-09	6.5843296e-11	0.47956872	-1.2096651e-16	0.55814564
4.5758490055502216e-10	4.8230215e-09	6.5843296e-11	0.47956872	-1.209665e-16	0.5581454
4.602759693075383e-10	4.5267265e-09	2.6337318e-10	0.47956872	-1.2096651e-16	0.5581455
4.626678309878545e-10	4.6419526e-09	3.292165e-10	0.47956872	-1.2096651e-16	0.55814594
4.650598564686618e-10	4.938247e-09	-1.1522577e-10	0.47956872	-1.2096651e-16	0.55814636
4.677509226511208e-10	5.086395e-09	3.292165e-10	0.47956872	-1.2096651e-16	0.5581454
4.701429422487462e-10	5.234542e-09	6.5843296e-11	0.47956872	-1.2096651e-16	0.5581452
4.72535156724821e-10	4.971169e-09	0	0.47956872	-1.2096651e-16	0.5581455
4.752260809051483e-10	4.8065605e-09	2.6337318e-10	0.47956872	-1.2096651e-16	0.55814636
4.776181937900399e-10	4.7242565e-09	5.2674637e-10	0.47956872	-1.2096651e-16	0.55814624
4.800097700864825e-10	4.6254915e-09	1.3168659e-10	0.47956872	-1.2096651e-16	0.55814594
4.827011456075461e-10	4.658413e-09	-4.2798143e-10	0.47956872	-1.2096651e-16	0.5581455
4.850930103679402e-10	5.168699e-09	-2.6337318e-10	0.47956872	-1.2096651e-16	0.5581459
4.877841825036727e-10	5.0040905e-09	1.3168659e-10	0.47956872	-1.2096651e-16	0.55814624
4.901761778927644e-10	5.2510027e-09	-1.3168659e-10	0.47956872	-1.2096651e-16	0.55814594
4.925682612356222e-10	5.3003855e-09	6.5843296e-11	0.47956872	-1.2096651e-16	0.55814564
4.952593322391072e-10	5.053473e-09	2.6337318e-10	0.47956872	-1.2096651e-16	0.5581455
4.976510815713896e-10	4.7407176e-09	3.950598e-10	0.47956872	-1.2096651e-16	0.55814594
5.000433500654752e-10	4.8065605e-09	3.2921648e-11	0.47956872	-1.2096651e-16	0.55814576
5.027341746295331e-10	4.938247e-09	6.5843296e-11	0.47956872	-1.2096651e-16	0.55814534
5.051264830975068e-10	4.8065605e-09	6.5843296e-11	0.47956872	-1.2096651e-16	0.55814564
5.075183256959823e-10	5.053473e-09	-4.609031e-10	0.47956872	-1.209665e-16	0.55814564
5.102094903927046e-10	4.888865e-09	0	0.47956872	-1.2096651e-16	0.55814576
5.126013710973362e-10	5.069934e-09	-6.5843296e-11	0.47956872	-1.2096648e-16	0.55814576
5.152924654702817e-10	5.2016205e-09	1.3168659e-10	0.47956872	-1.209665e-16	0.5581454
5.176845402235271e-10	5.267464e-09	1.3168659e-10	0.47956872	-1.2096651e-16	0.55814564
5.200764834429493e-10	4.971169e-09	1.3168659e-10	0.47956872	-1.2096651e-16	0.5581454
5.227676169005007e-10	4.8065605e-09	6.58433e-10	0.47956872	-1.2096651e-16	0.55814564
5.251595346022555e-10	4.971169e-09	3.950598e-10	0.47956872	-1.2096651e-16	0.5581459
5.27551715440328e-10	4.98763e-09	-2.6337318e-10	0.47956872	-1.2096651e-16	0.55814624
5.302424303324559e-10	4.609031e-09	-6.5843296e-11	0.47956872	-1.2096651e-16	0.55814564
5.326348826096613e-10	4.4444226e-09	-6.5843296e-11	0.47956872	-1.2096651e-16	0.55814534
5.350264807321472e-10	4.4773443e-09	1.3168659e-10	0.47956872	-1.2096651e-16	0.5581455
5.377178744581061e-10	4.707796e-09	0	0.47956872	-1.2096648e-16	0.55814624
5.401095067697811e-10	4.7736393e-09	1.975299e-10	0.47956872	-1.2096651e-16	0.5581461
5.425017860174475e-10	4.98763e-09	3.2921648e-11	0.47956872	-1.2096648e-16	0.5581461
5.451926846370609e-10	4.6419526e-09	6.5843296e-11	0.47956872	-1.2096651e-16	0.5581451
5.475848775060694e-10	4.8065605e-09	2.6337318e-10	0.47956872	-1.2096651e-16	0.5581455
5.502758007085053e-10	4.4773443e-09	1.975299e-10	0.47956872	-1.2096651e-16	0.55814636
5.526678124055326e-10	4.609031e-09	3.2921648e-11	0.47956872	-1.2096651e-16	0.55814594
5.550597519566331e-10	4.707796e-09	-6.5843296e-11	0.47956878	-1.2096651e-16	0.55814594
5.577509424838252e-10	4.7407176e-09	6.5843296e-11	0.47956872	-1.2096651e-16	0.55814576
5.60142834667472e-10	4.7736393e-09	5.2674637e-10	0.47956872	-1.2096651e-16	0.55814594
5.625348442467469e-10	4.7736393e-09	5.2674637e-10	0.47956872	-1.2096651e-16	0.55814594
5.652258013468721e-10	5.152238e-09	-2.1399071e-10	0.47956872	-1.2096651e-16	0.55814576
5.676179608652287e-10	5.0205515e-09	4.609031e-10	0.47956872	-1.2096651e-16	0.5581454
5.700099826492452e-10	5.0040905e-09	6.5843296e-11	0.47956872	-1.2096651e-16	0.55814564
5.727009612029874e-10	4.872404e-09	3.292165e-10	0.47956872	-1.2096651e-16	0.5581459
5.750932045171295e-10	4.7242565e-09	2.6337318e-10	0.47956872	-1.2096651e-16	0.55814576
5.777839643037369e-10	5.0040905e-09	-6.5843296e-11	0.47956872	-1.2096648e-16	0.5581455
5.801763221240828e-10	4.7242565e-09	6.5843296e-11	0.47956875	-1.2096651e-16	0.5581455
5.825680505521993e-10	5.1028555e-09	2.6337318e-10	0.47956872	-1.2096651e-16	0.55814564
5.852593272386794e-10	5.069934e-09	-3.292165e-10	0.47956872	-1.2096651e-16	0.5581455
5.876510103882955e-10	5.135777e-09	-1.3168659e-10	0.47956872	-1.2096651e-16	0.5581455
5.900434133381276e-10	5.1193165e-09	-1.3168659e-10	0.47956872	-1.2096651e-16	0.55814576
5.92734260696555e-10	5.2016205e-09	-1.6460824e-10	0.47956872	-1.209665e-16	0.55814564
5.951263369229491e-10	4.98763e-09	3.2921648e-11	0.47956872	-1.2096651e-16	0.5581455
5.975182813096827e-10	4.938247e-09	1.6460824e-10	0.47956872	-1.2096651e-16	0.5581454
6.002093647032784e-10	4.8065605e-09	-1.3168659e-10	0.47956872	-1.209665e-16	0.5581459
6.026013787957108e-10	4.691335e-09	-2.6337318e-10	0.47956872	-1.2096651e-16	0.55814654
6.05292436936816e-10	4.6748743e-09	-2.6337318e-10	0.47956872	-1.2096651e-16	0.55814564
6.076843442382638e-10	5.086395e-09	2.6337318e-10	0.47956872	-1.2096651e-16	0.55814534
6.100765586084767e-10	5.0040905e-09	6.5843296e-11	0.47956872	-1.2096651e-16	0.5581455
6.127673328551273e-10	4.938247e-09	3.950598e-10	0.47956872	-1.2096651e-16	0.5581465
6.151595756184186e-10	4.9053255e-09	4.609031e-10	0.47956872	-1.2096651e-16	0.5581461
6.17551471544125e-10	4.707796e-09	6.5843296e-11	0.47956872	-1.209665e-16	0.55814594
6.202426765975374e-10	4.3456576e-09	2.6337318e-10	0.47956872	-1.2096651e-16	0.5581459
6.226345057895258e-10	4.59257e-09	4.773639e-10	0.47956872	-1.2096651e-16	0.5581459
6.250265863661864e-10	4.411501e-09	-1.3168659e-10	0.47956872	-1.2096651e-16	0.55814576
6.277175130930228e-10	4.954708e-09	-6.58433e-10	0.47956872	-1.2096651e-16	0.5581461
6.30109654845762e-10	4.872404e-09	0	0.47956872	-1.209665e-16	0.5581454
6.325017830126024e-10	5.168699e-09	6.5843296e-11	0.47956872	-1.2096651e-16	0.5581455
6.351926233420447e-10	4.9217865e-09	3.950598e-10	0.47956872	-1.209665e-16	0.55814594
6.375848413936219e-10	5.152238e-09	1.3168659e-10	0.47956872	-1.2096651e-16	0.55814576
6.402757139211581e-10	4.6419526e-09	9.218062e-10	0.47956872	-1.2096651e-16	0.5581455
6.42667802054773e-10	4.839482e-09	2.6337318e-10	0.47956872	-1.2096651e-16	0.55814576
6.450597475142156e-10	4.6748743e-09	2.6337318e-10	0.47956872	-1.2096648e-16	0.55814576
6.477507519668162e-10	5.0205515e-09	6.5843296e-11	0.47956872	-1.2096651e-16	0.55814564
6.501428061527021e-10	4.872404e-09	3.950598e-10	0.47956872	-1.2096651e-16	0.5581455
6.525349692096465e-10	5.0205515e-09	3.950598e-10	0.47956872	-1.2096648e-16	0.5581459
6.552259006926181e-10	4.855943e-09	7.901196e-10	0.47956872	-1.209665e-16	0.55814594
6.576178709878652e-10	4.971169e-09	2.6337318e-10	0.47956872	-1.2096651e-16	0.55814564
6.600101360133246e-10	4.757178e-09	5.925897e-10	0.47956872	-1.2096651e-16	0.55814564
6.627009405933723e-10	4.6254915e-09	2.6337318e-10	0.47956872	-1.2096651e-16	0.55814576
6.650931049461539e-10	4.7736393e-09	2.6337318e-10	0.47956872	-1.2096651e-16	0.5581461
6.677839843913762e-10	4.839482e-09	-8.230412e-11	0.47956872	-1.2096651e-16	0.5581459
6.701761179148097e-10	4.9217865e-09	-1.3168659e-10	0.47956872	-1.2096651e-16	0.5581454
6.725680832565352e-10	4.872404e-09	3.950598e-10	0.47956872	-1.2096651e-16	0.55814534
6.752591135494036e-10	4.658413e-09	1.975299e-10	0.47956872	-1.2096651e-16	0.55814624
6.776510255053357e-10	4.938247e-09	-1.3168659e-10	0.47956872	-1.2096651e-16	0.55814594
6.800431692803263e-10	4.98763e-09	2.6337318e-10	0.47956872	-1.209665e-16	0.55814636
6.827341861179581e-10	4.938247e-09	-4.609031e-10	0.47956872	-1.2096651e-16	0.5581455
6.851261973743899e-10	5.1028555e-09	1.975299e-10	0.47956872	-1.2096651e-16	0.55814594
6.875183280433921e-10	4.8230215e-09	-3.950598e-10	0.47956872	-1.2096651e-16	0.55814576
6.902091986066656e-10	4.839482e-09	-1.3168659e-10	0.47956872	-1.2096651e-16	0.55814594
6.926014663732614e-10	4.6748743e-09	-6.5843296e-11	0.47956872	-1.2096651e-16	0.55814576
6.952921935066008e-10	4.5431876e-09	-2.6337318e-10	0.47956872	-1.2096651e-16	0.5581459
6.976843782264763e-10	4.839482e-09	-3.950598e-10	0.47956872	-1.2096651e-16	0.55814576
7.000763445086057e-10	4.691335e-09	-2.6337318e-10	0.4795687	-1.2096651e-16	0.55814594
7.027674784844851e-10	4.6254915e-09	0	0.47956872	-1.2096651e-16	0.55814564
7.05159368261888e-10	4.5431876e-09	-1.975299e-10	0.47956872	-1.2096651e-16	0.55814564
7.075513993367054e-10	4.3456576e-09	-1.6460824e-10	0.47956872	-1.2096651e-16	0.5581459
7.102423562105689e-10	4.691335e-09	-6.5843296e-11	0.47956872	-1.2096651e-16	0.55814594
7.126344836224677e-10	4.460883e-09	-3.292165e-10	0.47956872	-1.2096651e-16	0.55814576
7.150265192679681e-10	4.7407176e-09	-2.6337318e-10	0.47956872	-1.209665e-16	0.55814564
7.177175634196307e-10	4.8065605e-09	-1.3168659e-10	0.47956872	-1.2096651e-16	0.5581459
7.201095927076114e-10	4.971169e-09	-6.5843296e-11	0.47956872	-1.2096651e-16	0.55814576
7.225016036560085e-10	4.5431876e-09	5.2674637e-10	0.47956872	-1.2096651e-16	0.55814576
7.251925979956818e-10	4.839482e-09	2.6337318e-10	0.47956872	-1.2096651e-16	0.55814576
7.27584746243769e-10	5.053473e-09	3.2921648e-11	0.47956872	-1.2096651e-16	0.5581459
7.302756379942948e-10	4.6748743e-09	-6.5843296e-11	0.47956872	-1.2096651e-16	0.5581461
7.326677764661866e-10	4.6748743e-09	-1.975299e-10	0.47956872	-1.2096651e-16	0.55814576
7.350598377112972e-10	4.6419526e-09	-1.3168659e-10	0.47956872	-1.2096651e-16	0.5581455
7.377507317372047e-10	4.9053255e-09	2.6337318e-10	0.47956872	-1.2096651e-16	0.55814576
7.401427059862469e-10	4.6419526e-09	0	0.47956872	-1.2096651e-16	0.55814624
7.425348458906268e-10	4.4444226e-09	-6.5843296e-11	0.47956872	-1.2096651e-16	0.55814594
7.452257140026941e-10	4.411501e-09	8.230412e-11	0.47956872	-1.2096651e-16	0.5581454
7.476180723458365e-10	4.460883e-09	0	0.47956872	-1.2096651e-16	0.5581455
7.500097978468404e-10	4.5761093e-09	-3.950598e-10	0.47956872	-1.2096651e-16	0.55814594
7.527008642343538e-10	4.7407176e-09	-1.3168659e-10	0.47956872	-1.2096651e-16	0.55814624
7.550928737441043e-10	5.0205515e-09	-1.6460824e-10	0.47956872	-1.2096651e-16	0.55814576
7.577839329374775e-10	5.18516e-09	0	0.47956872	-1.2096651e-16	0.5581459
7.601758921488807e-10	4.9217865e-09	5.925897e-10	0.47956872	-1.2096651e-16	0.5581461
7.625679401192346e-10	4.7736393e-09	1.3168659e-10	0.47956872	-1.209665e-16	0.55814594
7.652589160200948e-10	4.6748743e-09	3.292165e-10	0.47956872	-1.2096651e-16	0.55814594
7.676509397924623e-10	4.329197e-09	1.3168659e-10	0.47956878	-1.2096651e-16	0.5581455
7.700431238570029e-10	4.707796e-09	0	0.47956872	-1.2096651e-16	0.55814576
7.727340364711269e-10	4.757178e-09	-1.3168659e-10	0.47956872	-1.209665e-16	0.55814594
7.751260886541491e-10	4.9053255e-09	0	0.47956872	-1.209665e-16	0.5581459
7.775179948713367e-10	4.5431876e-09	3.292165e-10	0.47956872	-1.2096651e-16	0.55814576
7.802090815602971e-10	4.658413e-09	9.876495e-11	0.47956872	-1.2096651e-16	0.55814576
7.826010263585589e-10	4.757178e-09	-4.609031e-10	0.47956872	-1.2096651e-16	0.5581459
7.852920796775474e-10	4.609031e-09	1.3168659e-10	0.47956872	-1.2096648e-16	0.5581459
7.876841964412994e-10	4.5761093e-09	1.975299e-10	0.47956872	-1.2096651e-16	0.5581455
7.900760990776119e-10	4.7242565e-09	-1.975299e-10	0.47956872	-1.2096648e-16	0.5581459
7.92767330323716e-10	4.6748743e-09	-1.3168659e-10	0.47956872	-1.209665e-16	0.55814594
7.951592476637355e-10	4.609031e-09	1.3168659e-10	0.47956872	-1.2096648e-16	0.55814576
7.975512319163076e-10	4.5431876e-09	-1.975299e-10	0.47956872	-1.2096651e-16	0.55814576
8.002422904580997e-10	4.6748743e-09	6.5843296e-11	0.47956872	-1.209665e-16	0.55814576
8.026341540879456e-10	4.7242565e-09	-3.292165e-10	0.47956872	-1.2096648e-16	0.55814594
8.050261855349404e-10	4.5431876e-09	-1.3168659e-10	0.47956872	-1.2096648e-16	0.55814636
8.077173427455991e-10	4.707796e-09	2.9629485e-10	0.47956872	-1.2096651e-16	0.5581454
8.101092084698088e-10	4.6748743e-09	1.975299e-10	0.47956872	-1.2096651e-16	0.5581454
8.125014032805439e-10	4.5761093e-09	-3.292165e-10	0.47956872	-1.2096651e-16	0.55814564
8.151924574954193e-10	4.5431876e-09	3.4567732e-10	0.47956872	-1.2096651e-16	0.55814636
8.175843129888905e-10	4.757178e-09	-1.975299e-10	0.47956872	-1.2096648e-16	0.55814624
8.202754650566883e-10	4.6419526e-09	-3.950598e-10	0.47956872	-1.2096651e-16	0.55814534
8.226673442759656e-10	4.9053255e-09	-7.901196e-10	0.47956872	-1.2096651e-16	0.5581459
8.250593817494625e-10	4.839482e-09	-3.292165e-10	0.47956872	-1.2096651e-16	0.55814594
8.277506124761061e-10	4.59257e-09	-1.975299e-10	0.47956872	-1.2096651e-16	0.5581461
8.301423333567459e-10	4.5761093e-09	-3.950598e-10	0.47956872	-1.2096651e-16	0.55814576
8.325345796335026e-10	4.312736e-09	-6.58433e-10	0.47956872	-1.2096651e-16	0.5581455
8.352254842006481e-10	4.609031e-09	-2.9629485e-10	0.47956872	-1.2096651e-16	0.55814594
8.376175460854772e-10	4.7736393e-09	-2.6337318e-10	0.47956872	-1.2096651e-16	0.5581461
8.400094222315441e-10	4.872404e-09	0	0.47956872	-1.209665e-16	0.55814576
8.427005964267548e-10	4.9053255e-09	1.3168659e-10	0.47956878	-1.2096651e-16	0.55814564
8.450925518605335e-10	4.2962753e-09	-2.3045155e-10	0.47956872	-1.2096651e-16	0.55814594
8.477837603011665e-10	4.329197e-09	-1.3168659e-10	0.47956872	-1.2096651e-16	0.5581459
8.501755758709062e-10	4.0822843e-09	6.5843296e-11	0.47956872	-1.2096651e-16	0.5581459
8.525676682109807e-10	4.329197e-09	-2.6337318e-10	0.47956872	-1.209665e-16	0.5581455
8.552586243003096e-10	4.213971e-09	0	0.47956872	-1.2096651e-16	0.5581459
8.576507827072519e-10	4.213971e-09	-3.292165e-10	0.47956872	-1.2096651e-16	0.5581459
8.600426747932986e-10	4.460883e-09	0	0.47956872	-1.2096651e-16	0.5581459
8.627337628363841e-10	4.872404e-09	0	0.47956872	-1.209665e-16	0.55814564
8.651259221678647e-10	4.872404e-09	1.975299e-10	0.47956872	-1.2096651e-16	0.5581459
8.675177345736235e-10	4.609031e-09	3.292165e-10	0.47956872	-1.2096651e-16	0.55814636
8.702088781826183e-10	4.0658237e-09	6.58433e-10	0.47956872	-1.2096651e-16	0.55814564
8.726008167196791e-10	4.1810493e-09	4.609031e-10	0.47956872	-1.2096651e-16	0.55814576
8.752919691933272e-10	4.2468926e-09	1.975299e-10	0.47956872	-1.209665e-16	0.5581459
8.776839342292402e-10	4.839482e-09	-1.6460824e-11	0.47956872	-1.2096651e-16	0.55814624