# t (s)	mx ()	my ()	mz ()	E_total (J)	MaxAngle (rad)
0	1.0411472e-09	5.2674637e-10	0.97953635	-2.0725775e-17	0.2662738
2.5393675356047694e-12	7.119306e-10	5.925897e-10	0.98739517	-2.0697237e-17	0.3065923
5.020181509687565e-12	5.432072e-10	0	0.98978406	-2.0671384e-17	0.36469382
7.548462455757439e-12	1.8929948e-10	-1.975299e-10	0.990889	-2.0661822e-17	0.4366703
1.0025891306129836e-11	4.2798143e-10	-5.2674637e-10	0.99156976	-2.0658012e-17	0.5092961
1.250264010662022e-11	2.9629485e-10	-3.950598e-10	0.99203837	-2.0655517e-17	0.5669075
1.502833056631726e-11	3.0452524e-10	-4.609031e-10	0.9923627	-2.0653565e-17	0.6115143
1.7503882389165937e-11	3.8682937e-10	-7.2427625e-10	0.992579	-2.0652223e-17	0.6453436
2.002851541015328e-11	3.950598e-10	-3.950598e-10	0.9927364	-2.0651393e-17	0.67334956
2.2503371759679728e-11	6.5843296e-11	1.3168659e-10	0.9928558	-2.065096e-17	0.6969704
2.502755663280039e-11	2.7983402e-10	-8.5596286e-10	0.9929578	-2.0650767e-17	0.71891457
2.7502096696766535e-11	1.2016401e-09	-1.1193361e-09	0.99304724	-2.065072e-17	0.7394999
3.002605132918605e-11	2.156368e-09	-5.2674637e-10	0.99313277	-2.0650769e-17	0.760496
3.250019848465681e-11	1.7119257e-09	2.6337318e-10	0.9932148	-2.0650885e-17	0.78194565
3.502354164264225e-11	6.4197214e-10	1.975299e-10	0.99329954	-2.0651069e-17	0.8057471
3.75468008924927e-11	1.4814742e-10	-1.3168659e-10	0.99338907	-2.0651347e-17	0.8329863
4.0020500824265e-11	2.1399071e-10	-2.6337318e-10	0.9934863	-2.0651745e-17	0.86546725
4.25435645413593e-11	2.3045155e-10	-2.7983402e-10	0.9936036	-2.0652379e-17	0.9094861
4.501709907614316e-11	5.925897e-10	-3.292165e-10	0.99375266	-2.0653497e-17	0.97584945
4.754009363654827e-11	1.4156308e-09	-9.547279e-10	0.99399275	-2.0656379e-17	1.1250476
5.003070831758979e-11	1.1851793e-08	-1.8633653e-08	0.9950771	-2.091528e-17	0.09165217
5.2545185509035234e-11	9.678964e-09	-4.938247e-09	0.9953588	-2.0957547e-17	0.091651514
5.502371016885447e-11	4.7901e-09	7.2427625e-10	0.9953807	-2.0959552e-17	0.09165217
5.7500310583613274e-11	1.5720087e-09	1.0534927e-09	0.9953833	-2.0959741e-17	0.091651514
6.002569144964447e-11	2.3045155e-10	6.58433e-10	0.9953836	-2.0959764e-17	0.09165217
6.250086425753724e-11	1.6460824e-10	0	0.9953836	-2.0959767e-17	0.09165217
6.502511053993873e-11	2.6337318e-10	-1.3168659e-10	0.9953836	-2.0959766e-17	0.09165217
6.754903257755215e-11	5.925897e-10	-3.292165e-10	0.99538374	-2.0959766e-17	0.09165282
7.002328772951126e-11	3.292165e-10	-4.4444226e-10	0.9953836	-2.0959764e-17	0.09165217
7.254690855990165e-11	2.9629485e-10	-5.925897e-10	0.9953836	-2.095977e-17	0.09165217
7.502094665398419e-11	9.876495e-11	-4.609031e-10	0.9953836	-2.0959769e-17	0.09165282
7.754438888488425e-11	3.6213813e-10	-4.2798143e-10	0.9953836	-2.0959766e-17	0.091651514
8.00182899134124e-11	6.58433e-10	-3.292165e-10	0.9953836	-2.0959769e-17	0.09165217
8.254158538193492e-11	7.2427625e-10	-1.3168659e-10	0.9953836	-2.0959769e-17	0.09165217
8.501533384201626e-11	4.2798143e-10	-2.7983402e-10	0.9953836	-2.0959769e-17	0.09165282
8.753850619229578e-11	5.2674637e-10	-1.3168659e-10	0.9953836	-2.0959767e-17	0.09165217
9.001217796992556e-11	3.6213813e-10	-1.3168659e-10	0.9953836	-2.0959769e-17	0.091651514
9.253528931015105e-11	6.090505e-10	-3.292165e-10	0.9953836	-2.0959767e-17	0.09165217
9.500891456801179e-11	2.6337318e-10	-6.5843296e-11	0.9953836	-2.0959767e-17	0.09165217
9.753200151095508e-11	2.7983402e-10	-2.3045155e-10	0.9953836	-2.0959769e-17	0.09165282
1.0000558800988457e-10	3.292165e-10	-2.6337318e-10	0.9953836	-2.0959766e-17	0.09165217
1.025286539762083e-10	2.9629485e-10	-3.950598e-10	0.9953836	-2.0959769e-17	0.09165217
1.0500223213283235e-10	4.115206e-10	-4.609031e-10	0.9953836	-2.0959764e-17	0.09165217
1.0752528369375615e-10	5.1028554e-10	-4.938247e-10	0.9953836	-2.0959767e-17	0.09165282
1.1004831052366753e-10	5.843593e-10	-6.5843296e-11	0.9953836	-2.0959769e-17	0.09165217
1.1252188014905013e-10	5.2674637e-10	-1.3168659e-10	0.9953836	-2.0959767e-17	0.09165282
1.1504490020626336e-10	4.691335e-10	-3.950598e-10	0.9953836	-2.0959767e-17	0.09165282
1.1751843597728058e-10	5.5966803e-10	-3.950598e-10	0.9953836	-2.0959767e-17	0.09165217
1.200414399902789e-10	3.7859896e-10	-4.773639e-10	0.9953836	-2.0959769e-17	0.091651514
1.225149690126168e-10	5.5966803e-10	-1.975299e-10	0.9953836	-2.0959769e-17	0.091651514
1.2503796900382473e-10	3.6213813e-10	-1.3168659e-10	0.9953836	-2.0959767e-17	0.091651514
1.275114780577553e-10	5.5966803e-10	-2.6337318e-10	0.9953836	-2.0959767e-17	0.091651514
1.3003444792462727e-10	4.2798143e-10	-3.950598e-10	0.9953836	-2.0959769e-17	0.09165217
1.3250794149277097e-10	4.773639e-10	-3.950598e-10	0.9953836	-2.0959769e-17	0.09165217
1.350308947531417e-10	1.975299e-10	-6.58433e-10	0.9953836	-2.0959767e-17	0.09165282
1.375043834192904e-10	6.58433e-10	-2.6337318e-10	0.9953836	-2.0959767e-17	0.091653466
1.4002730853272712e-10	5.7612887e-10	3.2921648e-11	0.9953836	-2.0959764e-17	0.091651514
1.42500772219926e-10	3.950598e-10	0	0.9953836	-2.0959769e-17	0.09165217
1.4502369076586208e-10	6.255113e-10	-3.292165e-10	0.9953836	-2.0959769e-17	0.09165282
1.47546591186689e-10	5.2674637e-10	-1.6460824e-10	0.9953836	-2.0959767e-17	0.09165217
1.5002001460895955e-10	6.58433e-10	-1.3168659e-10	0.9953836	-2.0959769e-17	0.09165217
1.5254289167830293e-10	3.950598e-10	0	0.9953836	-2.0959767e-17	0.09165282
1.5501631785822202e-10	3.950598e-10	-2.6337318e-10	0.9953836	-2.0959767e-17	0.09165217
1.575391942244957e-10	4.773639e-10	-3.950598e-10	0.9953836	-2.0959764e-17	0.09165217
1.600125797114058e-10	2.4691235e-10	-3.292165e-10	0.9953836	-2.0959769e-17	0.09165217
1.6253543059095365e-10	4.2798143e-10	-4.609031e-10	0.9953836	-2.0959766e-17	0.091651514
1.650088179923696e-10	4.115206e-10	-5.2674637e-10	0.9953836	-2.0959764e-17	0.09165282
1.6753166279765609e-10	4.2798143e-10	-1.3168659e-10	0.9953836	-2.0959769e-17	0.091651514
1.7000502799220086e-10	3.292165e-10	-2.6337318e-10	0.99538374	-2.0959769e-17	0.09165217
1.725278519561364e-10	5.1028554e-10	-1.975299e-10	0.9953836	-2.0959767e-17	0.091651514
1.7500121209036585e-10	4.938247e-10	-2.6337318e-10	0.99538374	-2.0959767e-17	0.091651514
1.7752404764068056e-10	4.773639e-10	-2.6337318e-10	0.9953836	-2.0959769e-17	0.09165217
1.8004685813112932e-10	1.6460824e-10	-4.609031e-10	0.9953836	-2.0959767e-17	0.09165217
1.825202178736738e-10	6.255113e-10	-3.950598e-10	0.9953836	-2.0959767e-17	0.091650866
1.8504304656792742e-10	3.292165e-10	-1.975299e-10	0.99538374	-2.0959769e-17	0.09165217
1.8751639594101497e-10	4.2798143e-10	-3.950598e-10	0.9953836	-2.0959767e-17	0.09165217
1.900392168408506e-10	3.7859896e-10	-5.2674637e-10	0.9953836	-2.0959767e-17	0.09165282
1.9251254760590584e-10	2.4691235e-10	-3.950598e-10	0.9953836	-2.0959767e-17	0.091651514
1.9503536351742065e-10	1.8106906e-10	6.5843296e-11	0.9953836	-2.0959769e-17	0.09165217
1.9750871126836377e-10	2.7983402e-10	-4.609031e-10	0.9953836	-2.0959769e-17	0.091651514
2.000315400578104e-10	3.950598e-10	-7.2427625e-10	0.9953836	-2.0959764e-17	0.09165217
2.025048949160263e-10	5.925897e-10	-3.950598e-10	0.9953836	-2.0959769e-17	0.09165282
2.050277210380203e-10	4.773639e-10	-2.6337318e-10	0.9953836	-2.0959769e-17	0.09165282
2.0750105281535572e-10	2.6337318e-10	-3.950598e-10	0.9953836	-2.0959769e-17	0.09165282
2.100238620789728e-10	3.950598e-10	-4.609031e-10	0.9953836	-2.0959767e-17	0.09165282
2.12546684837132e-10	4.115206e-10	-4.609031e-10	0.9953836	-2.0959764e-17	0.09165217
2.1502004837298207e-10	5.2674637e-10	-4.609031e-10	0.9953836	-2.0959769e-17	0.091651514
2.1754286476882225e-10	4.4444226e-10	-3.950598e-10	0.9953836	-2.0959767e-17	0.09165282
2.200162171801807e-10	3.4567732e-10	-1.6460824e-10	0.9953836	-2.0959767e-17	0.091651514
2.225390384221946e-10	3.6213813e-10	-4.609031e-10	0.9953836	-2.0959769e-17	0.09165217
2.2501238849208803e-10	4.609031e-10	-4.609031e-10	0.9953836	-2.0959764e-17	0.09165282
2.2753521284221144e-10	1.975299e-10	-4.2798143e-10	0.9953836	-2.0959769e-17	0.09165217
2.3000855797367102e-10	4.938247e-10	-4.609031e-10	0.9953836	-2.0959767e-17	0.09165217
2.3253137409650326e-10	3.1275565e-10	-3.950598e-10	0.9953836	-2.0959769e-17	0.09165217
2.3500472333361537e-10	3.292165e-10	-6.58433e-10	0.9953836	-2.0959769e-17	0.091651514
2.375275422004309e-10	4.115206e-10	-4.609031e-10	0.9953836	-2.0959766e-17	0.091651514
2.400008762539106e-10	3.6213813e-10	-4.609031e-10	0.9953836	-2.0959767e-17	0.09165217
2.425236984858024e-10	5.7612887e-10	-5.2674637e-10	0.9953836	-2.0959769e-17	0.091651514
2.450465275597738e-10	3.6213813e-10	-2.6337318e-10	0.9953836	-2.0959767e-17	0.09165217
2.475198763900671e-10	5.925897e-10	-5.2674637e-10	0.9953836	-2.0959769e-17	0.09165217
2.5004269831576554e-10	5.2674637e-10	-3.292165e-10	0.9953836	-2.0959769e-17	0.09165217
2.525160487700125e-10	3.7859896e-10	-3.950598e-10	0.9953836	-2.0959769e-17	0.091651514
2.550388572413293e-10	2.6337318e-10	-3.950598e-10	0.9953836	-2.0959767e-17	0.09165217
2.5751222532959514e-10	5.1028554e-10	-4.773639e-10	0.9953836	-2.0959767e-17	0.091651514
2.600350323569964e-10	4.773639e-10	-2.4691235e-10	0.9953836	-2.0959767e-17	0.09165217
2.6250838482139997e-10	4.8559434e-10	-2.3045155e-10	0.9953836	-2.0959769e-17	0.09165282
2.6503120323224457e-10	2.6337318e-10	-6.5843296e-11	0.9953836	-2.0959767e-17	0.09165217
2.675045579084733e-10	2.4691235e-10	-1.3168659e-10	0.9953836	-2.0959767e-17	0.09165282
2.7002737142063216e-10	5.1028554e-10	-3.292165e-10	0.9953836	-2.0959769e-17	0.09165217
2.725007211002352e-10	3.950598e-10	-4.609031e-10	0.9953836	-2.0959769e-17	0.09165217
2.7502354884282405e-10	9.876495e-11	-3.6213813e-10	0.9953836	-2.0959767e-17	0.091651514
2.775463693097384e-10	2.4691235e-10	-5.2674637e-10	0.9953836	-2.0959769e-17	0.09165217
2.80019718506364e-10	4.938247e-10	-2.6337318e-10	0.9953836	-2.0959769e-17	0.09165217
2.8254253248882195e-10	4.773639e-10	-1.975299e-10	0.9953836	-2.0959767e-17	0.09165217
2.8501587545541906e-10	5.7612887e-10	-4.609031e-10	0.9953836	-2.0959766e-17	0.091651514
2.8753869187292724e-10	5.5966803e-10	-3.292165e-10	0.9953836	-2.0959764e-17	0.09165217
2.900120434056541e-10	3.292165e-10	-3.950598e-10	0.9953836	-2.0959769e-17	0.09165217
2.9253486339398767e-10	5.925897e-10	-4.609031e-10	0.9953836	-2.0959769e-17	0.09165217
2.9500820985014314e-10	4.2798143e-10	-3.950598e-10	0.9953836	-2.0959767e-17	0.091651514
2.975310348513738e-10	5.2674637e-10	-1.975299e-10	0.9953836	-2.0959769e-17	0.09165282
3.000043761019051e-10	2.6337318e-10	-3.292165e-10	0.9953836	-2.0959769e-17	0.09165217
3.0252719419969077e-10	6.172809e-10	-4.609031e-10	0.9953836	-2.0959767e-17	0.09165282
3.0500055928376317e-10	5.2674637e-10	-5.2674637e-10	0.9953836	-2.0959767e-17	0.09165282
3.0752337255052416e-10	3.1275565e-10	-3.950598e-10	0.9953836	-2.0959767e-17	0.09165217
3.1004619210765094e-10	2.4691235e-10	-3.950598e-10	0.9953836	-2.0959769e-17	0.091651514
3.12519539687985e-10	4.773639e-10	-4.115206e-10	0.9953836	-2.0959769e-17	0.09165217
3.1504236058269885e-10	6.255113e-10	-2.6337318e-10	0.9953836	-2.0959769e-17	0.09165282
3.1751570221260384e-10	5.432072e-10	-3.950598e-10	0.9953836	-2.0959769e-17	0.09165282
3.200385353543061e-10	4.115206e-10	-5.2674637e-10	0.9953836	-2.0959767e-17	0.09165217
3.2251188246242337e-10	3.7859896e-10	-3.292165e-10	0.9953836	-2.0959764e-17	0.09165217
3.2503468347448637e-10	2.057603e-10	-4.609031e-10	0.9953836	-2.0959769e-17	0.09165282
3.2750803382559267e-10	2.3045155e-10	-4.609031e-10	0.9953836	-2.0959767e-17	0.09165217
3.300308465094843e-10	4.773639e-10	-5.2674637e-10	0.9953836	-2.0959767e-17	0.09165217
3.325042090144674e-10	3.539077e-10	-1.975299e-10	0.9953836	-2.0959767e-17	0.091651514
3.3502702579095363e-10	2.9629485e-10	3.2921648e-11	0.9953836	-2.0959764e-17	0.09165282
3.375003676536591e-10	2.3868196e-10	-1.975299e-10	0.99538374	-2.0959764e-17	0.09165217
3.4002317955241477e-10	4.2798143e-10	-4.609031e-10	0.9953836	-2.0959764e-17	0.09165217
3.4254599766432783e-10	4.2798143e-10	-4.609031e-10	0.99538374	-2.0959769e-17	0.09165217
3.450193417081986e-10	5.925897e-10	-2.9629485e-10	0.99538374	-2.0959767e-17	0.091651514
3.47542160938424e-10	3.6213813e-10	-5.2674637e-10	0.9953836	-2.0959767e-17	0.09165217
3.5001551878907996e-10	3.950598e-10	-4.609031e-10	0.9953836	-2.0959766e-17	0.09165217
3.525383276940107e-10	6.58433e-10	-5.2674637e-10	0.9953836	-2.0959764e-17	0.09165217
3.550116783481123e-10	6.9135464e-10	1.975299e-10	0.9953836	-2.0959769e-17	0.09165217
3.575344918659388e-10	4.938247e-10	-2.9629485e-10	0.9953836	-2.0959769e-17	0.091651514
3.600078431506005e-10	1.975299e-10	-1.1522577e-10	0.9953836	-2.0959767e-17	0.09165282
3.6253066799645257e-10	2.9629485e-10	-3.7859896e-10	0.9953836	-2.0959767e-17	0.09165217
3.6500401036537706e-10	1.975299e-10	-3.950598e-10	0.9953836	-2.0959769e-17	0.09165217
3.6752682554520394e-10	1.4814742e-10	-6.58433e-10	0.9953836	-2.0959767e-17	0.09165217
3.7000016874811255e-10	3.950598e-10	-3.950598e-10	0.9953836	-2.0959767e-17	0.091651514
3.725229956829777e-10	4.609031e-10	-4.609031e-10	0.9953836	-2.0959769e-17	0.09165217
3.7504581006282097e-10	5.432072e-10	-3.292165e-10	0.9953836	-2.0959767e-17	0.09165217
3.7751916249444884e-10	5.1028554e-10	-3.950598e-10	0.9953836	-2.0959767e-17	0.09165217
3.8004197320585194e-10	5.7612887e-10	-6.58433e-10	0.9953836	-2.0959769e-17	0.091651514
3.8251531770430784e-10	6.4197214e-10	-4.938247e-10	0.9953836	-2.0959769e-17	0.09165282
3.850381346858527e-10	4.938247e-10	-3.292165e-10	0.9953836	-2.0959769e-17	0.091651514
3.8751148550194404e-10	4.609031e-10	-4.609031e-10	0.99538374	-2.0959766e-17	0.09165217
3.9003430152754624e-10	6.58433e-10	-5.2674637e-10	0.9953836	-2.0959764e-17	0.09165282
3.925076428911074e-10	4.115206e-10	6.5843296e-11	0.9953836	-2.0959764e-17	0.09165217
3.950304583618989e-10	8.888845e-10	-1.975299e-10	0.9953836	-2.0959767e-17	0.09165217
3.975038172020843e-10	4.773639e-10	-2.6337318e-10	0.9953836	-2.0959767e-17	0.09165217
4.000266328738262e-10	2.1399071e-10	-2.6337318e-10	0.9953836	-2.0959767e-17	0.091651514
4.0254944744019726e-10	1.1522577e-10	-3.950598e-10	0.9953836	-2.0959767e-17	0.09165217
4.050227876989124e-10	8.230412e-12	-4.2798143e-10	0.9953836	-2.0959766e-17	0.09165217
4.0754560110621825e-10	4.609031e-10	-8.065804e-10	0.99538374	-2.0959769e-17	0.091651514
4.1001895138015605e-10	7.2427625e-10	-5.2674637e-10	0.9953836	-2.0959769e-17	0.09165217
4.125417724889898e-10	5.432072e-10	-2.6337318e-10	0.9953836	-2.0959767e-17	0.09165217
4.15015121030052e-10	5.432072e-10	-2.6337318e-10	0.9953836	-2.0959767e-17	0.09165217
4.175379306668096e-10	4.938247e-10	-3.950598e-10	0.99538374	-2.0959767e-17	0.091651514
4.2001127729925633e-10	4.032902e-10	-6.5843296e-11	0.9953836	-2.0959767e-17	0.09165217
4.225340917223128e-10	3.7036854e-10	-3.950598e-10	0.9953836	-2.0959767e-17	0.091651514
4.2500744111703983e-10	6.255113e-10	-4.609031e-10	0.9953836	-2.0959767e-17	0.091651514
4.275302570953315e-10	4.115206e-10	6.5843296e-11	0.9953836	-2.0959769e-17	0.09165282
4.3000361167271586e-10	2.4691235e-10	-3.4567732e-10	0.9953836	-2.0959764e-17	0.09165282
4.3252641240153924e-10	4.938247e-10	-4.609031e-10	0.9953836	-2.0959767e-17	0.09165217
4.350492404300186e-10	3.7859896e-10	-3.950598e-10	0.9953836	-2.0959767e-17	0.091651514
4.37522586653963e-10	3.374469e-10	-3.292165e-10	0.99538374	-2.0959769e-17	0.09165217
4.4004540183927376e-10	3.292165e-10	-5.2674637e-10	0.9953836	-2.0959769e-17	0.091651514
4.4251874892510496e-10	4.2798143e-10	-3.6213813e-10	0.9953836	-2.0959766e-17	0.09165217
4.4504156613808445e-10	1.6460824e-10	-1.3168659e-10	0.9953836	-2.0959769e-17	0.091651514
4.4751491913421387e-10	2.9629485e-10	-1.3168659e-10	0.9953836	-2.0959769e-17	0.09165217
4.5003773223808857e-10	2.4691235e-10	-4.609031e-10	0.9953836	-2.0959767e-17	0.091651514
4.525110789750772e-10	4.2798143e-10	-2.6337318e-10	0.9953836	-2.0959764e-17	0.09165217
4.550338931847598e-10	3.6213813e-10	-3.950598e-10	0.9953836	-2.0959769e-17	0.09165217
4.5750723663799235e-10	2.9629485e-10	-5.2674637e-10	0.9953836	-2.0959767e-17	0.09165217
4.600300511635306e-10	1.975299e-10	-3.292165e-10	0.9953836	-2.0959767e-17	0.09165217
4.625033976318129e-10	5.432072e-10	-4.609031e-10	0.9953836	-2.0959766e-17	0.09165282
4.650261959439407e-10	5.432072e-10	-2.6337318e-10	0.9953836	-2.0959769e-17	0.09165282
4.675490226602011e-10	3.950598e-10	-2.6337318e-10	0.9953836	-2.0959767e-17	0.09165217
4.700223742526221e-10	3.6213813e-10	-4.2798143e-10	0.9953836	-2.0959767e-17	0.09165282
4.725451820547836e-10	5.2674637e-10	-3.950598e-10	0.9953836	-2.0959769e-17	0.09165217
4.750185340237288e-10	6.090505e-10	-4.609031e-10	0.9953836	-2.0959767e-17	0.09165217
4.775413500699416e-10	4.4444226e-10	-6.58433e-10	0.9953836	-2.0959767e-17	0.091651514
4.80014695861477e-10	5.7612887e-10	-3.4567732e-10	0.9953836	-2.0959767e-17	0.09165217
4.825375227095564e-10	3.6213813e-10	-3.950598e-10	0.99538374	-2.0959769e-17	0.09165217
4.850108705879573e-10	2.3045155e-10	-4.609031e-10	0.99538374	-2.0959769e-17	0.091651514
4.875336904812087e-10	1.8106906e-10	-3.292165e-10	0.9953836	-2.0959767e-17	0.09165282
4.900070386449879e-10	1.4814742e-10	-1.975299e-10	0.9953836	-2.0959767e-17	0.09165282
4.925298500648362e-10	3.7859896e-10	-4.2798143e-10	0.99538374	-2.0959769e-17	0.09165282
4.950031971077715e-10	3.6213813e-10	-3.292165e-10	0.9953836	-2.0959767e-17	0.09165217
4.975260161346539e-10	3.7859896e-10	-2.6337318e-10	0.99538374	-2.0959767e-17	0.09165217
5.000488241489551e-10	4.3621184e-10	-1.975299e-10	0.9953836	-2.0959769e-17	0.09165217
5.025221796052477e-10	6.255113e-10	-3.950598e-10	0.9953836	-2.0959769e-17	0.09165217
5.050449891607484e-10	3.6213813e-10	-6.58433e-10	0.9953836	-2.0959767e-17	0.09165282
5.075183442332912e-10	2.6337318e-10	-4.609031e-10	0.9953836	-2.0959767e-17	0.09165217
5.100411612553166e-10	6.090505e-10	-2.6337318e-10	0.9953836	-2.0959769e-17	0.091651514
5.125144991150909e-10	6.090505e-10	-5.2674637e-10	0.9953836	-2.0959769e-17	0.091650866
5.150372987348468e-10	4.938247e-10	-3.950598e-10	0.9953836	-2.0959766e-17	0.091651514
5.175106566647376e-10	4.115206e-10	-6.5843296e-11	0.9953836	-2.0959767e-17	0.09165217
5.200334653835616e-10	3.4567732e-10	-3.292165e-10	0.9953836	-2.0959769e-17	0.09165282
5.225068202742931e-10	2.3045155e-10	-1.6460824e-10	0.9953836	-2.0959769e-17	0.09165217
5.250296444718479e-10	1.1522577e-10	-3.950598e-10	0.9953836	-2.0959767e-17	0.09165217
5.275029822035221e-10	2.7983402e-10	-4.609031e-10	0.9953836	-2.0959767e-17	0.09165217
5.300257995870241e-10	4.609031e-10	-4.609031e-10	0.9953836	-2.0959769e-17	0.09165217
5.325486124529158e-10	3.7859896e-10	0	0.9953836	-2.0959767e-17	0.091651514
5.350219612329276e-10	2.9629485e-10	-3.292165e-10	0.9953836	-2.0959767e-17	0.09165217
5.375447796277324e-10	2.9629485e-10	-2.6337318e-10	0.9953836	-2.0959769e-17	0.09165217
5.400181251488156e-10	2.6337318e-10	-5.2674637e-10	0.9953836	-2.0959769e-17	0.09165217
5.425409384463126e-10	2.9629485e-10	-3.950598e-10	0.9953836	-2.0959769e-17	0.091653466
5.450142872603239e-10	6.255113e-10	-3.292165e-10	0.99538374	-2.0959769e-17	0.091651514
5.475371039474505e-10	6.090505e-10	-4.609031e-10	0.9953836	-2.0959769e-17	0.091651514
5.500104440388555e-10	5.432072e-10	-3.950598e-10	0.9953836	-2.0959769e-17	0.09165217
5.525332625894027e-10	3.292165e-10	-2.9629485e-10	0.9953836	-2.0959767e-17	0.09165217
5.55006612056253e-10	3.4567732e-10	-3.292165e-10	0.9953836	-2.0959767e-17	0.09165217
5.575294278544062e-10	4.773639e-10	-3.950598e-10	0.9953836	-2.0959769e-17	0.09165217
5.600027759413874e-10	5.5966803e-10	-2.6337318e-10	0.99538374	-2.0959769e-17	0.09165217
5.625256012205799e-10	3.8682937e-10	-3.7859896e-10	0.9953836	-2.0959767e-17	0.09165217
5.65048414818279e-10	7.407371e-10	-3.292165e-10	0.9953836	-2.0959769e-17	0.091651514
5.675217595858886e-10	2.3868196e-10	-1.3168659e-10	0.9953836	-2.0959769e-17	0.09165282
5.700445701927483e-10	1.975299e-10	-3.6213813e-10	0.9953836	-2.0959767e-17	0.09165217
5.725179181088583e-10	3.6213813e-10	-3.7859896e-10	0.9953836	-2.0959767e-17	0.09165282
5.750407391071943e-10	4.4444226e-10	-3.950598e-10	0.9953836	-2.0959769e-17	0.091651514
5.775140801104532e-10	3.4567732e-10	-2.6337318e-10	0.9953836	-2.0959769e-17	0.09165217
5.800369017299733e-10	2.9629485e-10	-1.975299e-10	0.9953836	-2.0959767e-17	0.091651514
5.82510246062109e-10	2.7983402e-10	-3.950598e-10	0.99538374	-2.0959769e-17	0.09165217
5.850330688806614e-10	3.950598e-10	-1.6460824e-10	0.9953836	-2.0959769e-17	0.09165217
5.875064082460204e-10	6.090505e-10	-3.950598e-10	0.9953836	-2.0959769e-17	0.09165282
5.900292217449173e-10	5.2674637e-10	-3.950598e-10	0.9953836	-2.0959767e-17	0.09165282
5.925025625254854e-10	4.773639e-10	-3.4567732e-10	0.9953836	-2.0959766e-17	0.091651514
5.95025375891009e-10	1.7283866e-10	-4.2798143e-10	0.9953836	-2.0959769e-17	0.09165217
5.975481946483079e-10	1.6460824e-11	-4.609031e-10	0.9953836	-2.0959767e-17	0.09165217
6.000215537333362e-10	4.19751e-10	-4.609031e-10	0.9953836	-2.0959767e-17	0.09165217
6.025443688564241e-10	4.2798143e-10	-4.609031e-10	0.9953836	-2.0959769e-17	0.09165217
6.050177199537155e-10	4.4444226e-10	-1.975299e-10	0.9953836	-2.0959769e-17	0.09165217
6.075405356651656e-10	3.950598e-10	-4.609031e-10	0.99538374	-2.0959767e-17	0.09165217
6.100138808431809e-10	2.6337318e-10	-5.2674637e-10	0.9953836	-2.0959767e-17	0.091651514
6.1253668158438e-10	2.4691235e-10	-2.6337318e-10	0.9953836	-2.0959769e-17	0.09165217
6.15010028695252e-10	3.1275565e-10	-1.3168659e-10	0.9953836	-2.0959769e-17	0.09165282
6.175328556690768e-10	3.7036854e-10	-7.2427625e-10	0.9953836	-2.0959769e-17	0.09165217
6.200061951716117e-10	4.3621184e-10	-4.609031e-10	0.9953836	-2.0959767e-17	0.09165217
6.225290244743414e-10	6.666634e-10	-5.2674637e-10	0.9953836	-2.0959769e-17	0.09165217
6.250023687317926e-10	6.090505e-10	-7.571979e-10	0.9953836	-2.0959769e-17	0.09165217
6.275251782084403e-10	5.2674637e-10	-5.925897e-10	0.9953836	-2.0959767e-17	0.09165217
6.300479954309323e-10	4.609031e-10	-4.609031e-10	0.9953836	-2.0959769e-17	0.09165217
6.325213476890305e-10	5.5966803e-10	-4.609031e-10	0.9953836	-2.0959769e-17	0.09165217
6.350441616452519e-10	4.938247e-10	-1.975299e-10	0.99538374	-2.0959767e-17	0.09165217
6.37517513543579e-10	5.1028554e-10	-1.3168659e-10	0.9953836	-2.0959767e-17	0.09165217
6.40040316151579e-10	5.7612887e-10	1.3168659e-10	0.9953836	-2.0959769e-17	0.09165282
6.42513677736681e-10	2.3045155e-10	-1.975299e-10	0.9953836	-2.0959769e-17	0.09165217
6.450364681188096e-10	3.4567732e-10	-3.292165e-10	0.9953836	-2.0959767e-17	0.09165217
6.475098228929392e-10	3.292165e-10	-3.950598e-10	0.9953836	-2.0959767e-17	0.09165217
6.500326376301029e-10	2.3045155e-10	0	0.9953836	-2.0959764e-17	0.091651514
6.525059910370881e-10	3.1275565e-10	-3.292165e-10	0.9953836	-2.0959769e-17	0.09165217
6.550287993605315e-10	4.115206e-10	-3.950598e-10	0.9953836	-2.0959767e-17	0.09165217
6.575021380163144e-10	4.5267268e-10	-3.292165e-10	0.9953836	-2.0959767e-17	0.09165217
6.600249717866141e-10	5.2674637e-10	-4.609031e-10	0.9953836	-2.0959769e-17	0.09165217
6.625477865162788e-10	3.950598e-10	-3.292165e-10	0.9953836	-2.0959766e-17	0.09165217
6.650211333122364e-10	4.773639e-10	-1.975299e-10	0.9953836	-2.0959767e-17	0.091651514
6.675439485006361e-10	3.7859896e-10	-4.609031e-10	0.9953836	-2.0959769e-17	0.09165217
6.70017301811674e-10	6.58433e-10	-4.609031e-10	0.9953836	-2.0959769e-17	0.09165217
6.725401030012723e-10	6.666634e-10	-1.975299e-10	0.9953836	-2.0959767e-17	0.091651514
6.750134495378841e-10	4.2798143e-10	2.3045155e-10	0.9953836	-2.0959769e-17	0.09165217
6.775362601699464e-10	3.6213813e-10	0	0.9953836	-2.0959769e-17	0.091651514
6.800096250995114e-10	6.337417e-10	-1.3168659e-10	0.9953836	-2.0959769e-17	0.09165282
6.825324372307374e-10	5.2674637e-10	0	0.9953836	-2.0959767e-17	0.09165217
6.850057780228813e-10	2.9629485e-10	-3.950598e-10	0.9953836	-2.0959767e-17	0.09165282
6.875285930637707e-10	2.3045155e-10	-3.950598e-10	0.9953836	-2.0959767e-17	0.091651514
6.900019470527905e-10	3.6213813e-10	-5.432072e-10	0.9953836	-2.0959769e-17	0.09165217
6.925247592130952e-10	3.1275565e-10	-2.6337318e-10	0.9953836	-2.0959767e-17	0.091651514
6.950475796467659e-10	3.950598e-10	-4.2798143e-10	0.9953836	-2.0959769e-17	0.09165282
6.97520914996865e-10	3.950598e-10	-3.950598e-10	0.9953836	-2.0959769e-17	0.09165217
7.000437328660847e-10	7.078154e-10	-3.292165e-10	0.9953836	-2.0959767e-17	0.09165217
7.025170795090889e-10	3.6213813e-10	-1.6460824e-10	0.9953836	-2.0959769e-17	0.09165217
7.050398932625216e-10	3.1275565e-10	-6.5843296e-11	0.9953836	-2.0959769e-17	0.09165217
7.075132547315744e-10	2.6337318e-10	-3.950598e-10	0.9953836	-2.0959769e-17	0.09165217
7.100360683645016e-10	2.6337318e-10	-5.2674637e-10	0.9953836	-2.0959766e-17	0.09165217
7.125094018736571e-10	4.2798143e-10	-3.950598e-10	0.9953836	-2.0959767e-17	0.09165217
7.150322235585272e-10	4.2798143e-10	-4.2798143e-10	0.9953836	-2.0959769e-17	0.09165217
7.175055756799282e-10	2.9629485e-10	-4.4444226e-10	0.9953836	-2.0959769e-17	0.09165217
7.200283832840465e-10	5.2674637e-10	-3.950598e-10	0.9953836	-2.0959767e-17	0.09165217
7.225017277924712e-10	4.2798143e-10	-3.950598e-10	0.9953836	-2.0959769e-17	0.09165217
7.250245501710542e-10	3.4567732e-10	-2.6337318e-10	0.9953836	-2.0959769e-17	0.09165282
7.275473574813902e-10	4.938247e-10	-3.292165e-10	0.9953836	-2.0959767e-17	0.09165217
7.300207181571015e-10	5.5966803e-10	-4.609031e-10	0.9953836	-2.0959769e-17	0.09165282
7.325435300403503e-10	4.609031e-10	-4.4444226e-10	0.9953836	-2.0959769e-17	0.09165217
7.35016874185889e-10	2.4691235e-10	-3.950598e-10	0.9953836	-2.0959769e-17	0.09165217
7.375396917111972e-10	3.4567732e-10	-3.292165e-10	0.9953836	-2.0959767e-17	0.09165217
7.400130387205703e-10	4.773639e-10	-5.2674637e-10	0.9953836	-2.0959767e-17	0.091651514
7.42535858478927e-10	3.950598e-10	-4.609031e-10	0.9953836	-2.0959769e-17	0.09165217
7.450091972881945e-10	5.1028554e-10	-4.609031e-10	0.9953836	-2.0959769e-17	0.09165217
7.475320095399191e-10	3.4567732e-10	-3.950598e-10	0.99538374	-2.0959767e-17	0.09165217
7.500053534762567e-10	3.950598e-10	0	0.9953836	-2.0959766e-17	0.09165217
7.525281730183694e-10	3.6213813e-10	-4.2798143e-10	0.9953836	-2.0959769e-17	0.09165217
7.55001520492611e-10	1.7283866e-10	-9.876495e-11	0.9953836	-2.0959769e-17	0.09165217
7.575243327500013e-10	2.4691235e-10	-3.950598e-10	0.9953836	-2.0959766e-17	0.09165217
7.600471517487354e-10	2.9629485e-10	-1.975299e-10	0.9953836	-2.0959769e-17	0.09165217
7.625205101131946e-10	6.090505e-10	-7.571979e-10	0.9953836	-2.0959767e-17	0.09165217
7.65043322390011e-10	7.2427625e-10	-4.609031e-10	0.9953836	-2.0959767e-17	0.09165217
7.675166688198646e-10	3.6213813e-10	-5.2674637e-10	0.9953836	-2.0959769e-17	0.091651514
7.700394776694871e-10	4.8559434e-10	-3.950598e-10	0.9953836	-2.0959769e-17	0.09165282
7.725128218577286e-10	5.5966803e-10	-3.950598e-10	0.9953836	-2.0959769e-17	0.09165217
7.750356336656888e-10	6.090505e-10	-4.609031e-10	0.9953836	-2.0959769e-17	0.09165217
7.775089909222208e-10	6.090505e-10	-4.115206e-10	0.9953836	-2.0959766e-17	0.09165217
7.800318134329241e-10	6.4197214e-10	-4.609031e-10	0.9953836	-2.0959769e-17	0.09165282
7.825051558260099e-10	3.950598e-10	-1.975299e-10	0.9953836	-2.0959769e-17	0.09165217
7.850279769977333e-10	2.9629485e-10	-6.5843296e-11	0.9953836	-2.0959769e-17	0.09165217
7.875013249681064e-10	2.4691235e-10	-6.5843296e-11	0.9953836	-2.0959767e-17	0.091651514
7.900241279380975e-10	3.1275565e-10	-4.609031e-10	0.9953836	-2.0959767e-17	0.091651514
7.925469403860986e-10	3.950598e-10	-4.609031e-10	0.9953836	-2.0959767e-17	0.09165217
7.950202946153995e-10	3.7859896e-10	-5.2674637e-10	0.9953836	-2.0959767e-17	0.09165282
7.975431083995465e-10	2.7983402e-10	-4.609031e-10	0.9953836	-2.0959769e-17	0.09165217
8.000164625402957e-10	2.6337318e-10	-4.609031e-10	0.9953836	-2.0959769e-17	0.09165217
8.025392792034771e-10	2.3045155e-10	-6.58433e-10	0.9953836	-2.0959767e-17	0.091651514
8.050126314374265e-10	3.6213813e-10	-4.609031e-10	0.9953836	-2.0959769e-17	0.09165217
8.075354384744034e-10	3.950598e-10	-4.609031e-10	0.9953836	-2.0959764e-17	0.091651514
8.100087860836872e-10	3.7859896e-10	-3.950598e-10	0.9953836	-2.0959764e-17	0.09165217
8.125316023052091e-10	4.938247e-10	-4.609031e-10	0.9953836	-2.0959767e-17	0.09165217
8.150049469973466e-10	3.539077e-10	-5.2674637e-10	0.9953836	-2.0959767e-17	0.09165217
8.175277693986601e-10	7.078154e-10	-4.609031e-10	0.9953836	-2.0959767e-17	0.09165217
8.200011118709369e-10	7.2427625e-10	-1.975299e-10	0.9953836	-2.0959769e-17	0.091651514
8.225239236369545e-10	2.9629485e-10	-1.3168659e-10	0.9953836	-2.0959767e-17	0.09165282
8.250467452765722e-10	4.115206e-10	-2.7983402e-10	0.99538374	-2.0959769e-17	0.09165217
8.275200937448571e-10	6.58433e-10	-1.975299e-10	0.9953836	-2.0959769e-17	0.09165217
8.30042910468614e-10	4.4444226e-10	-1.4814742e-10	0.9953836	-2.0959767e-17	0.09165217
8.325162520915766e-10	4.032902e-10	2.6337318e-10	0.9953836	-2.0959767e-17	0.09165217
8.350390694693018e-10	1.3168659e-10	-3.950598e-10	0.9953836	-2.0959767e-17	0.09165217
8.375124185099327e-10	1.7283866e-10	-7.901196e-10	0.9953836	-2.0959769e-17	0.09165282
8.400352263934323e-10	2.3045155e-10	-6.58433e-10	0.9953836	-2.0959767e-17	0.09165282
8.425085748750653e-10	1.6460824e-10	-4.609031e-10	0.9953836	-2.0959769e-17	0.09165217
8.45031392897314e-10	4.4444226e-10	-4.609031e-10	0.9953836	-2.0959764e-17	0.09165282
8.475047535919098e-10	5.1028554e-10	-3.292165e-10	0.9953836	-2.0959769e-17	0.09165217
8.500275553799172e-10	1.8106906e-10	-1.975299e-10	0.99538374	-2.0959769e-17	0.09165217
8.525009107373072e-10	3.950598e-10	-3.950598e-10	0.9953836	-2.0959767e-17	0.09165217
8.550237302614671e-10	6.58433e-10	-3.950598e-10	0.9953836	-2.0959767e-17	0.09165217
8.575465470394543e-10	7.407371e-10	-4.609031e-10	0.9953836	-2.0959767e-17	0.09165217
8.60019884206412e-10	4.2798143e-10	-3.950598e-10	0.9953836	-2.0959767e-17	0.09165217
8.625426995621371e-10	5.7612887e-10	-4.2798143e-10	0.9953836	-2.0959764e-17	0.09165282
8.650160516561327e-10	7.571979e-10	-1.975299e-10	0.9953836	-2.0959769e-17	0.091651514
8.67538870194947e-10	3.950598e-10	-6.5843296e-11	0.9953836	-2.0959767e-17	0.09165217