# t (s)	mx ()	my ()	mz ()	E_total (J)	MaxAngle (rad)
0	9.58843e-10	7.571979e-10	0.97954804	-2.0725794e-17	0.266315
2.51815970745089e-12	2.0452575e-09	1.2674835e-09	0.97276944	-2.0697447e-17	0.2454683
5.045737426792078e-12	2.3045155e-09	3.1934e-09	0.9666644	-2.0640206e-17	0.23376043
7.519879623302274e-12	1.2510226e-09	5.8271317e-09	0.9621048	-2.0560444e-17	0.22960159
1.004261274683465e-11	-1.958838e-09	7.934117e-09	0.95961577	-2.0460647e-17	0.22962385
1.2514820105832347e-11	-6.5184866e-09	8.625472e-09	0.95956135	-2.0349976e-17	0.22873914
1.5035468224633974e-11	-1.1621342e-08	7.5719795e-09	0.96177447	-2.0224473e-17	0.2270099
1.7506104333742005e-11	-1.6724197e-08	2.6995752e-09	0.96565956	-2.0083116e-17	0.22571282
2.0025653506758604e-11	-2.0477266e-08	-6.3209566e-09	0.9702134	-1.990632e-17	0.22393109
2.2544900525336392e-11	-2.0016362e-08	-1.9489615e-08	0.9725605	-1.9677408e-17	0.21654953
2.50145911604313e-11	-1.1574017e-08	-3.3843456e-08	0.9664508	-1.9432759e-17	0.20372581
2.75335185105035e-11	5.530837e-09	-4.0954532e-08	0.9433439	-1.9350413e-17	0.2134712
3.0002927272985354e-11	2.2518408e-08	-3.7398994e-08	0.90607	-1.9496622e-17	0.23084646
3.252158370850606e-11	3.4633576e-08	-2.1333229e-08	0.8688488	-1.97152e-17	0.24265437
3.5040217987725944e-11	3.996688e-08	1.4156308e-09	0.8409237	-1.9898748e-17	0.21475792
3.750952670340238e-11	3.9440135e-08	1.7497856e-08	0.82014555	-2.0017385e-17	0.20533663
4.002795658528456e-11	3.39093e-08	2.7250895e-08	0.80447406	-2.0081937e-17	0.2062959
4.2545989245112785e-11	2.4407287e-08	3.1740583e-08	0.7938224	-2.011001e-17	0.21017203
4.501479036237153e-11	1.39917e-08	3.1892846e-08	0.7876448	-2.0118531e-17	0.21237454
4.753305328850088e-11	5.0040905e-09	2.9267346e-08	0.78488487	-2.0118885e-17	0.21389337
5.0001918619997225e-11	-2.0740638e-09	2.5514277e-08	0.7850183	-2.0117214e-17	0.21414876
5.252013599007912e-11	-5.711906e-09	2.0394962e-08	0.7874505	-2.0116503e-17	0.213947
5.5038322130243477e-11	-7.3744495e-09	1.578593e-08	0.7915235	-2.0117942e-17	0.21401887
5.7507131569277945e-11	-7.111076e-09	1.1773604e-08	0.79664177	-2.012161e-17	0.21542564
6.002534868468265e-11	-6.716016e-09	8.331234e-09	0.80270094	-2.0127357e-17	0.21504916
6.254356306996868e-11	-4.6748743e-09	5.3106732e-09	0.8092856	-2.0134575e-17	0.21733597
6.501240049442662e-11	-1.9423774e-09	4.4197312e-09	0.8159078	-2.0142445e-17	0.21747717
6.753061298655053e-11	6.5843296e-11	5.3970926e-09	0.82253295	-2.0150623e-17	0.2196163
7.004881879746641e-11	1.2510226e-09	4.9053255e-09	0.82882047	-2.015836e-17	0.22025394
7.251763623317625e-11	3.2263217e-09	4.9217865e-09	0.83453536	-2.0165107e-17	0.22189629
7.503582353447747e-11	4.1481276e-09	5.563759e-09	0.83983713	-2.0170837e-17	0.22226866
7.750462032573037e-11	4.691335e-09	6.551408e-09	0.84449273	-2.0175178e-17	0.22391526
8.002275943476914e-11	5.135777e-09	7.308606e-09	0.8487021	-2.0178274e-17	0.22376005
8.254089554518883e-11	4.6748743e-09	8.427942e-09	0.8524157	-2.0180057e-17	0.22506633
8.500965776766913e-11	3.6872247e-09	8.625472e-09	0.8556436	-2.0180591e-17	0.22583689
8.752778521113811e-11	2.2057505e-09	8.592551e-09	0.8585903	-2.0179993e-17	0.22568005
9.004591938811052e-11	1.4485525e-09	8.164569e-09	0.8612576	-2.0178343e-17	0.2262693
9.251466830452157e-11	2.0411421e-09	8.362099e-09	0.86365813	-2.0175807e-17	0.22711131
9.503279461938292e-11	2.5678886e-09	9.3497485e-09	0.8659367	-2.017237e-17	0.22737852
9.750154684260359e-11	1.6131608e-09	1.0074024e-08	0.86804384	-2.0168215e-17	0.22721268
1.0001966426229919e-10	2.9629485e-10	1.0271554e-08	0.8700988	-2.0163216e-17	0.2265635
1.0253778264302696e-10	-8.230412e-10	1.1061674e-08	0.8720892	-2.0157457e-17	0.22546446
1.0500654272547094e-10	-1.218101e-09	1.1061674e-08	0.8740036	-2.0151045e-17	0.22396463
1.075246792757905e-10	-2.633732e-09	1.0798301e-08	0.875942	-2.0143683e-17	0.22200704
1.1004281057955949e-10	-3.8847547e-09	1.0534928e-08	0.8778877	-2.0135403e-17	0.22142863
1.1251154032080405e-10	-4.9053255e-09	9.810651e-09	0.87982327	-2.0126282e-17	0.22070883
1.1502968560975092e-10	-4.8065605e-09	9.481435e-09	0.8818478	-2.0115788e-17	0.21945424
1.1754780403494525e-10	-5.069934e-09	9.3497485e-09	0.88394636	-2.010388e-17	0.2176147
1.2001656965135783e-10	-6.847703e-09	1.0337398e-08	0.886101	-2.009056e-17	0.21760918
1.2253469246268868e-10	-8.493785e-09	9.678964e-09	0.88842684	-2.0074922e-17	0.21698241
1.2500345216095323e-10	-1.0304476e-08	9.3497485e-09	0.8908661	-2.0057113e-17	0.21555498
1.2752158380061535e-10	-1.2016402e-08	8.559629e-09	0.8935563	-2.0035774e-17	0.21512401
1.3003972026252825e-10	-1.3333268e-08	6.9793895e-09	0.8964994	-2.0010366e-17	0.21483456
1.3250848586085422e-10	-1.537441e-08	5.5966805e-09	0.8996867	-1.9980356e-17	0.21314177
1.3502664037821846e-10	-1.7876456e-08	3.6872247e-09	0.90331423	-1.9942957e-17	0.21393408
1.3754478003201728e-10	-2.057603e-08	1.5802392e-09	0.9074004	-1.9896478e-17	0.21251927
1.4001355875157379e-10	-2.376943e-08	-1.7119257e-09	0.91193163	-1.9839095e-17	0.21359496
1.4253171913244779e-10	-2.8016323e-08	-6.913546e-09	0.91715497	-1.9764233e-17	0.21340789
1.450005028965728e-10	-3.1473096e-08	-1.4748899e-08	0.9228709	-1.9668937e-17	0.21274692
1.475186783992179e-10	-3.4468965e-08	-2.6600691e-08	0.92914927	-1.9540762e-17	0.21305074
1.500368635847945e-10	-3.3876375e-08	-4.1876337e-08	0.9353265	-1.936872e-17	0.21279858
1.5250568041220792e-10	-2.8180931e-08	-6.18927e-08	0.9399164	-1.9141358e-17	0.2116809
1.5502389035343347e-10	-1.3250964e-08	-8.520123e-08	0.9399937	-1.8840431e-17	0.20902272
1.575421087932561e-10	1.427565e-08	-1.02715546e-07	0.9297236	-1.8520981e-17	0.20969324
1.6001095472535653e-10	5.59668e-08	-1.0060856e-07	0.90439135	-1.8354855e-17	0.22716981
1.6252919566012793e-10	9.62629e-08	-7.980208e-08	0.8683685	-1.851339e-17	0.25272235
1.6504741882895606e-10	1.2589238e-07	-5.491331e-08	0.8335662	-1.8921745e-17	0.21685225
1.675163556632657e-10	1.3267424e-07	-5.6625233e-09	0.8018706	-1.9293018e-17	0.20071778
1.700349452259236e-10	1.1180192e-07	4.6962732e-08	0.7725917	-1.9550298e-17	0.2005503
1.725040704402152e-10	7.52342e-08	8.144816e-08	0.7482076	-1.970641e-17	0.20529512
1.7502202004004612e-10	3.5868137e-08	9.13905e-08	0.7285974	-1.9799592e-17	0.20975737
1.7754008717599932e-10	3.8847547e-09	8.2830866e-08	0.7144265	-1.9849549e-17	0.2115254
1.8000887937080828e-10	-1.6759177e-08	6.47898e-08	0.7053362	-1.98732e-17	0.21163324
1.825270103472532e-10	-2.6041024e-08	4.4773444e-08	0.7005171	-1.9883574e-17	0.21122965
1.8504512043313842e-10	-2.7654185e-08	2.8444305e-08	0.69948226	-1.9888026e-17	0.21123874
1.8751386733659083e-10	-2.594226e-08	1.698757e-08	0.7013299	-1.9891308e-17	0.21083555
1.9003203567048376e-10	-2.215627e-08	1.0600771e-08	0.70561045	-1.9896228e-17	0.21120861
1.9250086418116443e-10	-1.8666574e-08	6.3209566e-09	0.71180934	-1.9903903e-17	0.21187402
1.950190686425628e-10	-1.6296216e-08	2.7654186e-09	0.7197764	-1.9915174e-17	0.21118727
1.9753727544213484e-10	-1.3711866e-08	-1.0534927e-09	0.7289805	-1.992995e-17	0.21216632
2.000061174935619e-10	-1.0929988e-08	-2.7654186e-09	0.7388626	-1.994753e-17	0.21243335
2.0252430716640553e-10	-8.164569e-09	-3.6872247e-09	0.74955386	-1.9968114e-17	0.21197715
2.0504251280392446e-10	-4.8065605e-09	-3.8189114e-09	0.7606382	-1.9990737e-17	0.21286319
2.0751134566112592e-10	-2.3045155e-09	-2.1399071e-09	0.77167004	-2.0014174e-17	0.21402082
2.1002952685487841e-10	-1.7119257e-09	-1.9094557e-09	0.78286153	-2.0038568e-17	0.21497877
2.125477176736297e-10	-6.5843296e-11	-1.5473175e-09	0.7937604	-2.0062599e-17	0.21585575
2.1501652245916017e-10	1.2839443e-09	3.7448375e-10	0.8039481	-2.008499e-17	0.2164932
2.175346950087298e-10	1.6460824e-09	1.6975225e-09	0.81363624	-2.010585e-17	0.21811272
2.2000348208056429e-10	2.3703588e-09	3.7612984e-09	0.8222881	-2.0123796e-17	0.22026241
2.2252163790444464e-10	2.2057505e-09	5.2016205e-09	0.83014303	-2.0139191e-17	0.2213947
2.2503979554801946e-10	2.6995752e-09	6.3538783e-09	0.8369824	-2.0151587e-17	0.22233787
2.2750855122781184e-10	2.9135658e-09	7.242763e-09	0.84273833	-2.0160957e-17	0.22385752
2.300266819733555e-10	2.8312617e-09	8.115187e-09	0.84773767	-2.0167917e-17	0.22426207
2.3254479850126362e-10	9.547279e-10	9.481435e-09	0.8519886	-2.0172528e-17	0.22506312
2.350135445431737e-10	-7.2427625e-10	9.942338e-09	0.855565	-2.0175058e-17	0.22595611
2.3753165595677137e-10	-2.2222113e-09	9.18514e-09	0.8587388	-2.0175873e-17	0.2257517
2.4000038305150964e-10	-2.9464875e-09	8.559629e-09	0.8614924	-2.01752e-17	0.22639042
2.425184792076877e-10	-3.2592433e-09	8.296255e-09	0.8640254	-2.017323e-17	0.22719733
2.450365854482508e-10	-3.1604783e-09	7.308606e-09	0.8663514	-2.0170149e-17	0.22739731
2.4750531729188103e-10	-3.456773e-09	7.209841e-09	0.8684854	-2.0166182e-17	0.22712323
2.5002341633279507e-10	-3.7859897e-09	6.18927e-09	0.87055683	-2.0161252e-17	0.22635724
2.5254153184566694e-10	-4.1810493e-09	6.1563483e-09	0.87255806	-2.0155473e-17	0.22513549
2.550102603574716e-10	-3.9835193e-09	5.3991505e-09	0.87448096	-2.0148978e-17	0.22351816
2.575283753675687e-10	-3.9505976e-09	4.938247e-09	0.87642854	-2.0141469e-17	0.22166272
2.600464814295144e-10	-4.7736393e-09	5.267464e-09	0.8783855	-2.0132986e-17	0.22128312
2.625152180283894e-10	-5.069934e-09	5.2016205e-09	0.88033533	-2.0123614e-17	0.22043395
2.650333195515403e-10	-6.1563483e-09	5.6625233e-09	0.88237906	-2.0112799e-17	0.2190366
2.675020721904381e-10	-6.9793895e-09	4.872404e-09	0.8844599	-2.0100755e-17	0.21763071
2.700201900133213e-10	-8.164569e-09	3.9505976e-09	0.8866881	-2.00867e-17	0.21751888
2.72538299509416e-10	-9.086375e-09	2.897105e-09	0.88905346	-2.007046e-17	0.2166904
2.750070492200199e-10	-9.77773e-09	1.7119257e-09	0.89154094	-2.005191e-17	0.2150204
2.775251801132565e-10	-9.942338e-09	-1.3168659e-10	0.89429176	-2.0029618e-17	0.2151645
2.800433088325737e-10	-1.0238633e-08	-9.218062e-10	0.8973097	-2.0002974e-17	0.21454218
2.8251205004120804e-10	-1.1259204e-08	-2.3045155e-09	0.90058684	-1.9971397e-17	0.21347682
2.850301903369313e-10	-1.2608991e-08	-4.938247e-09	0.9043253	-1.9931893e-17	0.21382204
2.87548326386435e-10	-1.32674245e-08	-8.823002e-09	0.90854406	-1.9882595e-17	0.2129577
2.9001710788688053e-10	-1.32674245e-08	-1.2905287e-08	0.9132246	-1.9821489e-17	0.21333893
2.9253524417845013e-10	-1.27736e-08	-1.7250944e-08	0.91861033	-1.974145e-17	0.21374844
2.950040438935558e-10	-1.0864144e-08	-2.278178e-08	0.92446655	-1.9639155e-17	0.21361493
2.975222176326775e-10	-7.045233e-09	-3.0419603e-08	0.930796	-1.9501016e-17	0.21327867
3.000403891113231e-10	5.925897e-10	-3.911092e-08	0.936766	-1.931498e-17	0.21217537
3.0250920448946107e-10	1.2987591e-08	-4.71438e-08	0.94056374	-1.9069784e-17	0.21084522
3.0502741394513657e-10	3.1234414e-08	-5.3069698e-08	0.9386077	-1.8754641e-17	0.2086297
3.075456209455521e-10	5.4065577e-08	-4.8197293e-08	0.9245655	-1.8454335e-17	0.2119885
3.100144681890775e-10	7.522597e-08	-2.7127438e-08	0.89546967	-1.8360195e-17	0.23517227
3.1253269270922655e-10	8.823002e-08	-2.2386721e-09	0.8590608	-1.8607496e-17	0.24636537
3.150015446444319e-10	8.981026e-08	2.4394941e-08	0.8256167	-1.9022085e-17	0.2107196
3.1751990971221447e-10	6.841118e-08	5.3217846e-08	0.79393256	-1.937116e-17	0.2003
3.200385432484757e-10	3.4600653e-08	7.0781546e-08	0.76568705	-1.959937e-17	0.20222612
3.2250749632073355e-10	3.7859897e-09	7.1044916e-08	0.74259853	-1.9735873e-17	0.20695364
3.250254527935196e-10	-1.8600732e-08	5.8995596e-08	0.72441953	-1.9815894e-17	0.21075891
3.275435432317483e-10	-3.0189153e-08	4.1086217e-08	0.7115818	-1.985767e-17	0.2120457
3.300123188903951e-10	-3.218091e-08	2.3045153e-08	0.7036765	-1.9876836e-17	0.21116367
3.3253043739262847e-10	-2.7654185e-08	9.613121e-09	0.6999228	-1.9885053e-17	0.2112862
3.350485497680089e-10	-2.1876435e-08	1.0534927e-09	0.69972146	-1.9888858e-17	0.2111759
3.3751732443936367e-10	-1.6460824e-08	-2.5020452e-09	0.7022211	-1.9892359e-17	0.21061954
3.400354993223664e-10	-1.2164549e-08	-3.9505976e-09	0.70707	-1.9897947e-17	0.21150693
3.425043191369704e-10	-9.99172e-09	-5.267464e-09	0.71373093	-1.9906479e-17	0.21176372
3.450225273595201e-10	-6.370339e-09	-6.0575833e-09	0.7220576	-1.9918675e-17	0.2117555
3.475407182697015e-10	-3.456773e-09	-6.0575833e-09	0.7315203	-1.9934313e-17	0.211802
3.500095399953704e-10	-8.724237e-10	-5.530837e-09	0.7415816	-1.995263e-17	0.21265487
3.5252772907623953e-10	7.571979e-10	-4.609031e-09	0.7523958	-1.9973805e-17	0.21275823
3.5504592899787456e-10	1.4485525e-09	-4.016441e-09	0.76354575	-1.9996837e-17	0.21257268
3.575147363682547e-10	2.6995752e-09	-3.1275567e-09	0.7745838	-2.0020479e-17	0.21371302
3.600329228007982e-10	2.8312617e-09	-1.9094557e-09	0.78572154	-2.0044861e-17	0.21509105
3.6250172865801303e-10	3.1275567e-09	-4.5267268e-10	0.79630107	-2.0068209e-17	0.21637386
3.650199092967504e-10	3.473234e-09	1.5185111e-09	0.8065326	-2.0090609e-17	0.21751033
3.675380653062068e-10	3.2839345e-09	2.8477225e-09	0.81600845	-2.0110852e-17	0.2182237
3.7000683533772524e-10	2.1069855e-09	4.090515e-09	0.82441914	-2.012807e-17	0.22031751
3.725249818762622e-10	1.2510226e-09	4.3785793e-09	0.8320116	-2.0142687e-17	0.2220249
3.7504312279563857e-10	1.3827093e-09	4.1481276e-09	0.83859116	-2.0154323e-17	0.22199324
3.7751186594817874e-10	1.9094557e-09	4.5431876e-09	0.8441125	-2.0163e-17	0.22419505
3.800299820022615e-10	1.4814742e-09	5.0040905e-09	0.84890467	-2.0169325e-17	0.2240218
3.825480847746904e-10	7.571979e-10	5.9258967e-09	0.8529848	-2.0173375e-17	0.225401
3.8501681513970104e-10	-3.292165e-10	5.79421e-09	0.856428	-2.017543e-17	0.22599949
3.8753492017058936e-10	-8.230412e-10	5.8271317e-09	0.8594966	-2.017583e-17	0.22555244
3.900036275615283e-10	-1.876534e-09	5.037012e-09	0.8621719	-2.0174804e-17	0.22667094
3.9252172444154094e-10	-1.9423774e-09	5.069934e-09	0.8646452	-2.0172535e-17	0.22729364
3.9503982774305034e-10	-2.2057505e-09	4.609031e-09	0.8669272	-2.0169188e-17	0.22737509
3.9750854017930785e-10	-2.436202e-09	3.4238514e-09	0.8690305	-2.016499e-17	0.22697149
4.0002664613097495e-10	-1.777769e-09	3.555538e-09	0.8710805	-2.0159836e-17	0.22608165
4.025447431682382e-10	-1.7448474e-09	3.094635e-09	0.87306875	-2.0153835e-17	0.22475016
4.0501346692935365e-10	-1.0534927e-09	3.2263217e-09	0.87498575	-2.0147122e-17	0.22302178
4.075315749188612e-10	-1.6131608e-09	4.016441e-09	0.8769334	-2.0139371e-17	0.22160958
4.100002911144005e-10	-2.3045155e-09	3.2263217e-09	0.87885773	-2.0130803e-17	0.22112092
4.125183971545169e-10	-2.5020452e-09	2.633732e-09	0.8808583	-2.012094e-17	0.22012706
4.150365135387463e-10	-2.1399071e-09	2.633732e-09	0.88292015	-2.010977e-17	0.21857803
4.175052421502462e-10	-1.9752988e-09	2.897105e-09	0.88502556	-2.0097301e-17	0.21766357
4.2002335227902977e-10	-2.7654186e-09	1.9752988e-09	0.88728607	-2.0082721e-17	0.21737769
4.2254145383655045e-10	-2.6995752e-09	2.5020452e-09	0.8896927	-2.0065842e-17	0.2163411
4.2501019891587845e-10	-3.1604783e-09	2.3703588e-09	0.89223063	-2.0046495e-17	0.21486922
4.275283231232772e-10	-3.555538e-09	1.5143958e-09	0.8950453	-2.0023179e-17	0.21512848
4.3004643775033797e-10	-4.016441e-09	1.316866e-09	0.8981419	-1.9995219e-17	0.21414314
4.325151976672111e-10	-4.609031e-09	6.58433e-10	0.90151334	-1.996196e-17	0.21375321
4.3503332603094696e-10	-5.6625233e-09	0	0.905368	-1.9920183e-17	0.2135449
4.375020769675932e-10	-6.5843295e-09	-2.0411421e-09	0.909634	-1.9868997e-17	0.21336229
4.40020216677179e-10	-7.637823e-09	-3.4238514e-09	0.9145585	-1.9802714e-17	0.21277657
4.4253836037840875e-10	-7.4073707e-09	-5.8600533e-09	0.9201055	-1.9717051e-17	0.21369392
4.450071335510077e-10	-7.2756845e-09	-8.691315e-09	0.92608774	-1.9607137e-17	0.21396609
4.4752529029818994e-10	-7.1769195e-09	-1.2510227e-08	0.9324227	-1.9458115e-17	0.21372709
4.500434674866837e-10	-5.234542e-09	-1.8699497e-08	0.9380717	-1.925689e-17	0.21245202
4.525122926867769e-10	-3.950598e-10	-2.4230333e-08	0.94083387	-1.8993443e-17	0.21000828
4.550304889527966e-10	7.242763e-09	-2.9102738e-08	0.93640816	-1.8669096e-17	0.20754516
4.57548702339965e-10	1.876534e-08	-2.9629483e-08	0.91826826	-1.8401875e-17	0.21595895
4.600175420907375e-10	3.074882e-08	-2.1859975e-08	0.8860865	-1.8390885e-17	0.24358855
4.625357582686474e-10	3.897923e-08	-1.4090466e-08	0.8499788	-1.8713601e-17	0.23456088
4.650046147249091e-10	4.332489e-08	-1.8436124e-09	0.81716603	-1.912438e-17	0.20640877
4.6752305277205e-10	3.851833e-08	1.4633673e-08	0.78623056	-1.9440857e-17	0.1994044
4.700417010205844e-10	2.7012213e-08	2.6699457e-08	0.7591093	-1.9642444e-17	0.20282471
4.725104672633079e-10	1.2839443e-08	3.1670627e-08	0.73736054	-1.976134e-17	0.20825987
4.750284394869605e-10	1.0699536e-09	2.9366111e-08	0.720606	-1.982965e-17	0.2108586
4.775465514555212e-10	-5.234542e-09	2.1859975e-08	0.70906043	-1.986432e-17	0.21213461
4.800153121830857e-10	-8.131647e-09	1.4222152e-08	0.70231336	-1.9879718e-17	0.2108925
4.825334232949475e-10	-8.921766e-09	8.296255e-09	0.6995668	-1.9886252e-17	0.21129814
4.850021585534472e-10	-7.3579884e-09	4.4773443e-09	0.70010626	-1.9889624e-17	0.21109286
4.875202822178723e-10	-5.267464e-09	3.0287917e-09	0.7032673	-1.9893546e-17	0.21054
4.900384493012454e-10	-3.5061556e-09	1.316866e-09	0.7086605	-1.9899881e-17	0.21173424
4.925072530368761e-10	-2.6995752e-09	6.58433e-10	0.7157549	-1.9909294e-17	0.21148904
4.950254509222131e-10	-1.6625432e-09	-1.3168659e-10	0.72441274	-1.9922404e-17	0.21212187
4.975436495883032e-10	-9.218062e-10	-7.901196e-10	0.7341118	-1.9938881e-17	0.21127142
5.000124656228256e-10	6.5843296e-11	-1.1851794e-09	0.744336	-1.9957895e-17	0.21253623
5.02530646949561e-10	1.3827093e-09	-3.292165e-10	0.7552583	-1.9979618e-17	0.21316543
5.050488285133362e-10	2.2386721e-09	-2.9629485e-10	0.76645833	-2.0003009e-17	0.2134726
5.07517621017602e-10	3.0287917e-09	5.5966803e-10	0.7774872	-2.0026795e-17	0.2135674
5.10035806746917e-10	3.555538e-09	1.316866e-09	0.78855574	-2.0051111e-17	0.21474281
5.125045956474884e-10	3.6213814e-09	1.7283865e-09	0.7990112	-2.0074171e-17	0.21650404
5.150227563603801e-10	3.4896948e-09	2.5555429e-09	0.80906415	-2.0096085e-17	0.21810529
5.175409045278951e-10	3.2592433e-09	3.7757015e-09	0.8183178	-2.0115666e-17	0.2192891
5.200096648147289e-10	2.897105e-09	3.555538e-09	0.8264814	-2.0132143e-17	0.22004597
5.225277914813975e-10	2.9629483e-09	3.6213814e-09	0.8338101	-2.0145979e-17	0.22237246
5.250459205421634e-10	3.0617133e-09	3.0781742e-09	0.84013426	-2.0156868e-17	0.22278424
5.275146552730165e-10	2.7983402e-09	3.5884598e-09	0.84542876	-2.0164873e-17	0.2243572
5.300327545986612e-10	2.6008102e-09	4.312736e-09	0.85002303	-2.017058e-17	0.22413069
5.325014752658123e-10	2.5020452e-09	4.872404e-09	0.8538706	-2.0174045e-17	0.22565582
5.350195694813821e-10	2.3703588e-09	4.2468926e-09	0.8572604	-2.0175683e-17	0.2259734
5.375376517351068e-10	2.2057505e-09	4.016441e-09	0.860231	-2.0175685e-17	0.22583823
5.40006353330041e-10	2.732497e-09	3.8189114e-09	0.86283356	-2.0174328e-17	0.22690025
5.425244439703134e-10	2.2386721e-09	4.3456576e-09	0.8652514	-2.0171762e-17	0.22734626
5.450425287644587e-10	1.679004e-09	4.609031e-09	0.8674934	-2.0168165e-17	0.22731638
5.475112341006513e-10	1.2839443e-09	4.411501e-09	0.86956865	-2.0163738e-17	0.22678442
5.500293133830463e-10	1.8106907e-09	3.555538e-09	0.87159956	-2.0158367e-17	0.22577938
5.525473900463821e-10	1.8436124e-09	3.8847547e-09	0.87357664	-2.0152148e-17	0.2243331
5.550161014643228e-10	2.0411421e-09	5.0040905e-09	0.87548935	-2.0145206e-17	0.22249486
5.575341804787165e-10	9.876494e-10	5.135777e-09	0.8774388	-2.0137206e-17	0.22152442
5.600029001532191e-10	4.938247e-10	4.8065605e-09	0.8793707	-2.0128365e-17	0.22091347
5.625209964248706e-10	3.292165e-10	4.5431876e-09	0.88138473	-2.0118186e-17	0.21978258
5.650390806416678e-10	-2.6337318e-10	4.5431876e-09	0.8834666	-2.0106635e-17	0.21807803
5.675078034911772e-10	-1.975299e-10	4.411501e-09	0.8855981	-2.0093726e-17	0.21765278
5.70025887412779e-10	-4.938247e-10	5.069934e-09	0.88789314	-2.0078598e-17	0.21718915
5.725439910652712e-10	-4.938247e-10	6.0575833e-09	0.89034355	-2.0061029e-17	0.21592724
5.750127161557736e-10	-1.0534927e-09	6.847703e-09	0.8929348	-2.0040852e-17	0.21503577
5.775308319099767e-10	-2.732497e-09	7.506136e-09	0.89581674	-2.001644e-17	0.21500893
5.800489399710755e-10	-4.2798143e-09	7.506136e-09	0.8989963	-1.9987072e-17	0.21363236
5.825176685937507e-10	-5.333307e-09	6.847703e-09	0.9024668	-1.9952003e-17	0.21390769
5.850357838282578e-10	-6.3209566e-09	6.7818595e-09	0.90644336	-1.9907792e-17	0.21308315
5.875045334518398e-10	-8.691315e-09	6.847703e-09	0.9108494	-1.9853392e-17	0.21359271
5.900226586066908e-10	-1.1456733e-08	6.0575833e-09	0.9159333	-1.9782665e-17	0.21283188
5.925407963371514e-10	-1.46501336e-08	4.2798143e-09	0.92163795	-1.9690897e-17	0.21319136
5.950095650359482e-10	-1.9522538e-08	1.9752988e-09	0.92772627	-1.9572685e-17	0.21374337
5.975277259847369e-10	-2.5645964e-08	-2.897105e-09	0.9340082	-1.9411787e-17	0.21349625
6.000459084230261e-10	-2.976117e-08	-1.237854e-08	0.93919575	-1.91942e-17	0.21217963
6.025147099236844e-10	-3.2987494e-08	-2.5283827e-08	0.940632	-1.8912846e-17	0.20937115
6.050329118211408e-10	-2.9501912e-08	-4.055947e-08	0.93327266	-1.8586796e-17	0.20923373
6.075017463747939e-10	-1.5822968e-08	-5.451825e-08	0.9114822	-1.8369235e-17	0.2209899
6.100199543620314e-10	6.0575833e-09	-6.110258e-08	0.8765524	-1.8446765e-17	0.25017726
6.125381694783418e-10	2.4098647e-08	-6.406553e-08	0.8411024	-1.8825167e-17	0.22444694
6.150070458674511e-10	4.4444224e-08	-5.234542e-08	0.80888397	-1.921858e-17	0.20306809
6.175255722980843e-10	5.711906e-08	-2.6896988e-08	0.7787931	-1.9502669e-17	0.2003632
6.200441586561744e-10	5.8839216e-08	-6.5843296e-11	0.7528759	-1.9680122e-17	0.20489621
6.225127611786601e-10	5.0831026e-08	1.9839408e-08	0.7324993	-1.9783235e-17	0.20825265
6.25030770275794e-10	3.5588304e-08	2.9892856e-08	0.7171457	-1.9841168e-17	0.21061014
6.275488918315186e-10	2.1119238e-08	3.2131528e-08	0.7068562	-1.9869704e-17	0.21192954
6.300176286865181e-10	1.0156328e-08	2.8707678e-08	0.7012339	-1.9881992e-17	0.21111846
6.325357115431624e-10	2.5020452e-09	2.2386722e-08	0.699432	-1.9887253e-17	0.21127853
6.350044435306121e-10	-8.888845e-10	1.777769e-08	0.7006902	-1.9890494e-17	0.21097419
6.375225698088861e-10	-2.8641833e-09	1.4090466e-08	0.7044615	-1.9894906e-17	0.21090929
6.400407199405538e-10	-3.275704e-09	1.0666614e-08	0.71037406	-1.9902038e-17	0.21185955
6.425095301325773e-10	-3.670764e-09	8.032882e-09	0.71787286	-1.9912343e-17	0.21102257
6.450276973061779e-10	-2.8312617e-09	6.716016e-09	0.7268345	-1.9926356e-17	0.21225546
6.475458804513586e-10	-2.99587e-09	6.847703e-09	0.73674923	-1.9943642e-17	0.21203692
6.500146737438962e-10	-2.9629483e-09	5.267464e-09	0.7471207	-1.996331e-17	0.21206129
6.525328486022973e-10	-2.9300267e-09	3.8189114e-09	0.7581362	-1.9985537e-17	0.21317811
6.550016474865171e-10	-2.2715938e-09	2.1728288e-09	0.7691502	-2.0008756e-17	0.21393073
6.575198151609263e-10	-1.0534927e-09	2.3374371e-09	0.7803753	-2.003311e-17	0.21451725
6.600379642997968e-10	5.925897e-10	3.333317e-09	0.7913593	-2.0057302e-17	0.21502681
6.625067330379799e-10	-4.938247e-10	4.0308445e-09	0.801677	-2.0080023e-17	0.21619055
6.650248847427266e-10	5.5966803e-10	3.1666512e-09	0.81153935	-2.0101392e-17	0.21828261
6.675430191206163e-10	1.9423774e-09	2.4238564e-09	0.82056165	-2.0120285e-17	0.2199755
6.700117598319853e-10	3.5884598e-09	2.617271e-09	0.8284735	-2.0136006e-17	0.22060916
6.725298887456971e-10	5.1028555e-09	4.032902e-09	0.8355392	-2.014907e-17	0.22245623
6.750479914685144e-10	5.0040905e-09	5.629602e-09	0.84161305	-2.0159222e-17	0.22346061
6.775167022253104e-10	4.3456576e-09	6.3868e-09	0.84668887	-2.016657e-17	0.22436658
6.800347739338996e-10	3.6872247e-09	5.79421e-09	0.85109484	-2.0171688e-17	0.22468275
6.825034804708324e-10	3.2592433e-09	5.267464e-09	0.8547933	-2.017464e-17	0.225855
6.850215594350602e-10	4.2468926e-09	4.5761093e-09	0.8580639	-2.0175832e-17	0.22587974
6.875396221079231e-10	5.037012e-09	5.79421e-09	0.8609433	-2.0175448e-17	0.22615132
6.900082993276172e-10	4.3456576e-09	7.5719795e-09	0.86347866	-2.017377e-17	0.22708166
6.925263838416357e-10	2.5678886e-09	7.999961e-09	0.86584556	-2.017093e-17	0.22738805
6.950444442304254e-10	1.2510226e-09	8.362099e-09	0.86805046	-2.016708e-17	0.22722168
6.975131296637922e-10	4.609031e-10	7.5719795e-09	0.8701003	-2.016243e-17	0.22656801
7.000311812739756e-10	3.950598e-10	6.650173e-09	0.8721145	-2.015684e-17	0.22544767
7.025492510845176e-10	1.1851794e-09	6.913546e-09	0.8740821	-2.01504e-17	0.22388922
7.050179541327174e-10	2.2386721e-09	7.1769195e-09	0.87599236	-2.014323e-17	0.2219426
7.075360215158496e-10	1.4814742e-09	8.823002e-09	0.87794507	-2.0134976e-17	0.2214099
7.100047352950078e-10	-4.609031e-10	9.744808e-09	0.879886	-2.0125854e-17	0.22067316
7.125228060539533e-10	-1.9752988e-09	9.613121e-09	0.8819152	-2.011534e-17	0.21939921
7.150408831387577e-10	-3.2592433e-09	9.1522185e-09	0.8840186	-2.01034e-17	0.21757935
7.175095760936386e-10	-4.2798143e-09	8.691315e-09	0.88617814	-2.0090023e-17	0.21760035
7.20027661726451e-10	-5.366229e-09	8.7571586e-09	0.8885099	-2.0074312e-17	0.21694697
7.225457459919132e-10	-5.99174e-09	8.296255e-09	0.89100647	-2.0056026e-17	0.21544905
7.250144494351939e-10	-7.967039e-09	8.625472e-09	0.89365405	-2.003495e-17	0.21513407
7.275325500950313e-10	-9.415592e-09	9.1522185e-09	0.8966071	-2.0009382e-17	0.21480155
7.300012749637721e-10	-1.2312697e-08	8.559629e-09	0.8998064	-1.9979171e-17	0.21314994
7.32519366374826e-10	-1.5473175e-08	7.506136e-09	0.90344846	-1.9941495e-17	0.2139282
7.350374691986214e-10	-1.8732418e-08	5.464994e-09	0.90755236	-1.9894652e-17	0.21243139
7.375062132847039e-10	-2.2650093e-08	2.3703588e-09	0.9121033	-1.9836787e-17	0.21357667
7.400243398817258e-10	-2.6732378e-08	-2.1728288e-09	0.91734856	-1.9761252e-17	0.21347485
7.425424715161357e-10	-3.1209723e-08	-8.691315e-09	0.92320395	-1.9662852e-17	0.21296926
7.450112260232229e-10	-3.6049205e-08	-1.8041064e-08	0.9293713	-1.9535589e-17	0.2128996
7.475293794772051e-10	-3.8650015e-08	-3.252659e-08	0.9355263	-1.9361734e-17	0.21264866
7.500475440084564e-10	-3.6757022e-08	-5.293801e-08	0.94007933	-1.9126722e-17	0.211518
7.525163594993016e-10	-2.7588342e-08	-7.506136e-08	0.93985003	-1.8828972e-17	0.20897734
7.550345546969793e-10	-5.913551e-09	-9.639459e-08	0.9290964	-1.8511338e-17	0.21028629
7.575033755851754e-10	3.23949e-08	-1.0153036e-07	0.9032308	-1.8354147e-17	0.22757517
7.600215908176168e-10	7.2164255e-08	-9.0732065e-08	0.8671054	-1.8525092e-17	0.2525244
7.62539781138877e-10	1.0238633e-07	-7.255932e-08	0.8324032	-1.8936586e-17	0.21615858
7.650087188332871e-10	1.1720107e-07	-3.0452526e-08	0.8007921	-1.9304017e-17	0.20019603
7.675273325206059e-10	1.0824638e-07	2.136615e-08	0.7716461	-1.9557255e-17	0.20089498
7.700457897253586e-10	8.223828e-08	5.8732223e-08	0.74699956	-1.971295e-17	0.20523311
7.725143087391325e-10	5.0205514e-08	7.492967e-08	0.7280151	-1.980194e-17	0.20995194
7.750323239171025e-10	1.9654225e-08	7.348112e-08	0.71402603	-1.9850732e-17	0.21162558
7.775010610675774e-10	-1.4320917e-09	6.18927e-08	0.70509607	-1.9873739e-17	0.21157506
7.800191425077947e-10	-1.5604861e-08	4.635368e-08	0.700423	-1.988379e-17	0.21124072
7.825372108834663e-10	-2.0436113e-08	3.1868154e-08	0.6995031	-1.9888137e-17	0.21123192
7.85005928029135e-10	-1.996698e-08	2.0543109e-08	0.7014398	-1.989144e-17	0.21081105
7.875240364585425e-10	-1.797522e-08	1.3432032e-08	0.7057977	-1.9896445e-17	0.21125181
7.900421736618695e-10	-1.5670704e-08	8.9546885e-09	0.71220255	-1.990442e-17	0.21186353
7.925109579004582e-10	-1.4304456e-08	4.7407176e-09	0.7200764	-1.991563e-17	0.21127428
7.950291285845571e-10	-1.2032863e-08	2.2386721e-09	0.72931623	-1.9930523e-17	0.21213433
7.975472774328606e-10	-1.0271554e-08	2.6337318e-10	0.7394278	-1.9948582e-17	0.21250854
8.000160616731431e-10	-8.127532e-09	-5.925897e-10	0.74993134	-1.9968865e-17	0.21210262
8.025342279560595e-10	-5.7612883e-09	-1.5143958e-09	0.7610251	-1.9991543e-17	0.21278588
8.050029874438391e-10	-3.753068e-09	-2.0740638e-09	0.7720585	-2.0015011e-17	0.21400651
8.075211304361632e-10	-2.3045155e-09	-1.5802392e-09	0.7832434	-2.0039405e-17	0.21502067
8.100392695330213e-10	-1.975299e-10	-1.8271515e-09	0.79412794	-2.0063415e-17	0.21595506
8.125080263716786e-10	1.679004e-09	6.769514e-10	0.8042945	-2.0085745e-17	0.21665324
8.150261342532914e-10	1.777769e-09	1.7242714e-09	0.8139548	-2.0106526e-17	0.21806094
8.175442409338013e-10	2.2057505e-09	2.0452575e-09	0.8227379	-2.0124702e-17	0.22030304
8.20012978324519e-10	5.0040905e-09	4.3209663e-09	0.83039504	-2.0139666e-17	0.22149593
8.225310624542412e-10	4.0822843e-09	5.7283667e-09	0.83719945	-2.0151961e-17	0.22230408
8.250491346296868e-10	3.094635e-09	6.8806245e-09	0.84302926	-2.0161398e-17	0.22394398
8.275178367557391e-10	3.0287917e-09	7.621361e-09	0.84789515	-2.016811e-17	0.22423768
8.300359008940086e-10	3.1604783e-09	9.020532e-09	0.8521228	-2.017265e-17	0.22511466
8.325045646562879e-10	1.9094557e-09	1.0337398e-08	0.855681	-2.0175112e-17	0.22596622
8.350226175921082e-10	-6.5843296e-11	1.0436163e-08	0.85884035	-2.0175875e-17	0.22572854
8.375406589185729e-10	-1.3662484e-09	9.613121e-09	0.86163515	-2.0175125e-17	0.22645281
8.400093236262585e-10	-2.4032802e-09	8.658394e-09	0.864108	-2.017314e-17	0.2272132
8.425273662300238e-10	-2.0740638e-09	7.637823e-09	0.86642796	-2.0170025e-17	0.2273965
8.450454167249171e-10	-1.8436124e-09	7.3744495e-09	0.8685991	-2.0165939e-17	0.2270957
8.475140811648094e-10	-1.679004e-09	8.493785e-09	0.8706261	-2.0161068e-17	0.22632296
8.500321312682973e-10	-1.9423774e-09	9.086375e-09	0.87262547	-2.015526e-17	0.22508582
8.525008084868765e-10	-3.4238514e-09	9.283905e-09	0.8745476	-2.0148738e-17	0.2234547
8.550188690573118e-10	-4.312736e-09	7.901195e-09	0.8764948	-2.0141194e-17	0.22165784
8.575369087397134e-10	-4.609031e-09	7.7695095e-09	0.8784525	-2.013268e-17	0.22126193
8.600056001923018e-10	-4.938247e-09	7.7695095e-09	0.8804038	-2.0123264e-17	0.22039658
8.625236554989905e-10	-5.037012e-09	7.835352e-09	0.88244975	-2.0112407e-17	0.21897925
8.650417038703874e-10	-5.3991505e-09	7.242763e-09	0.8845763	-2.0100049e-17	0.21764258
8.675103876894927e-10	-6.485565e-09	7.1769195e-09	0.88676596	-2.008619e-17	0.21750341