# t (s)	mx ()	my ()	mz ()	E_total (J)	MaxAngle (rad)
0	9.3003655e-10	2.6337318e-10	0.9795359	-2.0725771e-17	0.26627225
2.513366636765392e-12	8.5596286e-10	5.2674637e-10	0.9843712	-2.0729907e-17	0.29952964
5.035694406953015e-12	8.5596286e-10	7.901196e-10	0.9872876	-2.0726208e-17	0.3402324
7.507502145686217e-12	9.547279e-10	1.1193361e-09	0.988863	-2.0720284e-17	0.3884179
1.002767885814955e-11	8.230412e-10	5.2674637e-10	0.9896942	-2.0714626e-17	0.43681827
1.2546895438466326e-11	3.950598e-10	3.950598e-10	0.990129	-2.0710323e-17	0.47798318
1.501641070503382e-11	4.2798143e-10	1.3168659e-10	0.99038714	-2.0707436e-17	0.5065545
1.753533413792574e-11	9.218062e-10	-2.6337318e-10	0.99057275	-2.070555e-17	0.52568454
2.0004907082165732e-11	1.3497876e-09	3.292165e-10	0.9907029	-2.0704407e-17	0.537672
2.2523888144277623e-11	1.5308567e-09	8.5596286e-10	0.9907871	-2.0703702e-17	0.54541636
2.5042871326457994e-11	1.1522577e-09	7.2427625e-10	0.9908309	-2.0703277e-17	0.55032593
2.7512450542227845e-11	5.925897e-10	9.218062e-10	0.9908489	-2.0703025e-17	0.5534313
3.0031409679069915e-11	-1.3168659e-10	7.901196e-10	0.9908568	-2.070287e-17	0.55551326
3.2500964543287016e-11	-2.3045155e-10	-4.609031e-10	0.99086356	-2.0702779e-17	0.5568909
3.5019904768910865e-11	4.609031e-10	-5.2674637e-10	0.9908721	-2.070272e-17	0.55786973
3.7538813288290196e-11	3.292165e-10	5.2674637e-10	0.99088055	-2.0702681e-17	0.55856794
4.000823108206991e-11	4.115206e-10	1.0205711e-09	0.9908869	-2.0702653e-17	0.55906814
4.25268419938056e-11	8.065804e-10	8.5596286e-10	0.9908905	-2.0702635e-17	0.55944914
4.5045454529040714e-11	-9.876495e-11	2.9629485e-10	0.9908921	-2.0702627e-17	0.5597387
4.7514716808040527e-11	-3.292165e-10	6.5843296e-11	0.9908929	-2.0702617e-17	0.559959
5.003334848703016e-11	-3.2921648e-11	-7.2427625e-10	0.9908937	-2.070261e-17	0.5601358
5.2502616137611955e-11	7.407371e-10	-6.58433e-10	0.99089485	-2.0702604e-17	0.56027246
5.5021276743626124e-11	1.497935e-09	-2.6337318e-10	0.9908959	-2.0702602e-17	0.56038344
5.7539948225977715e-11	6.9135464e-10	3.950598e-10	0.990897	-2.0702599e-17	0.5604714
6.000922406420982e-11	7.7365875e-10	6.5843296e-11	0.9908977	-2.0702597e-17	0.56054085
6.252790100256019e-11	1.2839443e-09	0	0.9908981	-2.0702595e-17	0.5605975
6.504656367738465e-11	1.6460824e-09	5.2674637e-10	0.99089825	-2.0702594e-17	0.5606433
6.751586682166722e-11	1.4156308e-09	8.888845e-10	0.99089855	-2.0702592e-17	0.5606794
7.003455142371604e-11	6.9135464e-10	1.0534927e-09	0.9908988	-2.0702592e-17	0.56070924
7.250383079685211e-11	3.950598e-10	5.2674637e-10	0.990899	-2.0702592e-17	0.56073284
7.502251313068016e-11	5.5966803e-10	1.3168659e-10	0.9908991	-2.070259e-17	0.5607522
7.754119639483206e-11	7.571979e-10	-1.6460824e-11	0.9908993	-2.0702589e-17	0.5607676
8.001049073290016e-11	6.58433e-10	-3.2921648e-11	0.99089944	-2.070259e-17	0.5607799
8.252917312017649e-11	1.0205711e-09	3.950598e-10	0.99089944	-2.0702589e-17	0.56078994
8.504786311807938e-11	8.888845e-10	3.6213813e-10	0.99089956	-2.0702589e-17	0.56079817
8.751715513067182e-11	7.571979e-10	2.6337318e-10	0.99089956	-2.0702587e-17	0.56080455
9.003583819860348e-11	1.0370319e-09	3.950598e-10	0.9908996	-2.070259e-17	0.56080985
9.250513819497448e-11	7.7365875e-10	7.901196e-10	0.9908996	-2.0702592e-17	0.56081396
9.502383010630793e-11	7.7365875e-10	7.901196e-10	0.9908997	-2.0702589e-17	0.5608177
9.754250102809389e-11	4.609031e-10	7.901196e-10	0.9908997	-2.0702587e-17	0.5608203
1.0001180643232973e-10	4.938247e-10	6.58433e-10	0.9908997	-2.0702589e-17	0.5608225
1.0253048453277068e-10	6.58433e-10	5.2674637e-10	0.9908997	-2.0702587e-17	0.5608245
1.050491772630658e-10	3.950598e-10	7.2427625e-10	0.9908997	-2.0702589e-17	0.56082606
1.0751846501276105e-10	3.292165e-10	3.950598e-10	0.9908997	-2.0702589e-17	0.56082743
1.1003715252985636e-10	7.901196e-10	1.3168659e-10	0.9908997	-2.0702587e-17	0.56082857
1.1250644557452299e-10	9.547279e-10	5.2674637e-10	0.9908997	-2.070259e-17	0.5608292
1.1502512176818849e-10	7.571979e-10	5.2674637e-10	0.9908997	-2.070259e-17	0.5608301
1.1754380998352334e-10	5.925897e-10	5.2674637e-10	0.9908997	-2.0702585e-17	0.56083053
1.200130998877284e-10	6.090505e-10	5.925897e-10	0.9908997	-2.070259e-17	0.5608311
1.2253176915732484e-10	6.255113e-10	5.925897e-10	0.9908997	-2.0702587e-17	0.5608315
1.250010598896819e-10	7.407371e-10	2.6337318e-10	0.99089986	-2.0702587e-17	0.5608319
1.2751975301247822e-10	1.0534927e-09	4.609031e-10	0.9908997	-2.0702589e-17	0.56083214
1.3003842226341464e-10	1.3827093e-09	3.950598e-10	0.9908997	-2.0702587e-17	0.5608322
1.3250769874723861e-10	1.1522577e-09	7.2427625e-10	0.9908997	-2.0702589e-17	0.5608324
1.3502636728054094e-10	2.9629485e-10	1.0699536e-09	0.99089986	-2.0702589e-17	0.5608326
1.3754504357995467e-10	2.6337318e-10	5.2674637e-10	0.9908997	-2.0702587e-17	0.56083274
1.4001432862859803e-10	3.2921648e-11	2.6337318e-10	0.9908997	-2.0702589e-17	0.56083274
1.4253300214142445e-10	5.2674637e-10	6.5843296e-11	0.9908997	-2.0702589e-17	0.5608328
1.4500227925095915e-10	9.218062e-10	-2.6337318e-10	0.9908997	-2.0702589e-17	0.5608329
1.4752092651574277e-10	1.0370319e-09	2.6337318e-10	0.99089986	-2.0702587e-17	0.5608329
1.500395913603739e-10	5.5966803e-10	5.2674637e-10	0.99089986	-2.070259e-17	0.56083304
1.5250887145170234e-10	3.6213813e-10	1.3168659e-10	0.99089986	-2.070259e-17	0.5608329
1.5502753501021502e-10	3.950598e-10	2.6337318e-10	0.9908997	-2.0702587e-17	0.56083316
1.5754618139481212e-10	1.8106906e-10	2.6337318e-10	0.9908997	-2.0702589e-17	0.56083316
1.6001545828411166e-10	1.8106906e-10	1.975299e-10	0.9908997	-2.070259e-17	0.5608333
1.625341080598862e-10	7.901196e-10	0	0.9908997	-2.0702587e-17	0.56083316
1.6500338019543244e-10	7.2427625e-10	0	0.99089986	-2.0702587e-17	0.5608333
1.675220355955155e-10	1.0534927e-09	5.2674637e-10	0.9908997	-2.0702589e-17	0.56083304
1.700406959191465e-10	9.547279e-10	7.571979e-10	0.9908997	-2.0702589e-17	0.56083316
1.7250995399057365e-10	5.925897e-10	5.2674637e-10	0.99089986	-2.0702587e-17	0.56083316
1.750286067330365e-10	6.58433e-10	3.950598e-10	0.9908997	-2.070259e-17	0.5608333
1.775472625137274e-10	7.571979e-10	1.975299e-10	0.9908997	-2.070259e-17	0.56083304
1.8001651142919894e-10	5.2674637e-10	2.6337318e-10	0.9908997	-2.0702587e-17	0.56083316
1.8253516458069922e-10	8.230412e-10	3.292165e-10	0.9908997	-2.0702589e-17	0.5608333
1.85004424666026e-10	7.901196e-10	3.950598e-10	0.99089986	-2.070259e-17	0.5608333
1.875230740343085e-10	4.773639e-10	2.6337318e-10	0.99089986	-2.0702589e-17	0.5608333
1.9004171608810213e-10	6.58433e-10	2.6337318e-10	0.99089986	-2.070259e-17	0.5608333
1.9251096950956233e-10	4.609031e-10	7.901196e-10	0.9908997	-2.0702589e-17	0.5608334
1.9502960795391413e-10	1.975299e-10	2.6337318e-10	0.99089986	-2.0702587e-17	0.5608333
1.9754825459140502e-10	6.9135464e-10	1.975299e-10	0.99089986	-2.070259e-17	0.5608333
2.0001752231701883e-10	4.938247e-10	2.6337318e-10	0.9908997	-2.0702589e-17	0.56083316
2.025361528996592e-10	3.1275565e-10	1.3168659e-10	0.9908997	-2.0702587e-17	0.56083316
2.050054070207553e-10	1.3168659e-10	1.4814742e-10	0.9908997	-2.0702587e-17	0.56083316
2.0752405728848155e-10	5.5966803e-10	-6.5843296e-11	0.9908997	-2.070259e-17	0.5608333
2.1004269135741545e-10	7.901196e-10	1.6460824e-11	0.9908997	-2.0702589e-17	0.56083316
2.1251194790190195e-10	1.1193361e-09	3.292165e-10	0.9908997	-2.0702587e-17	0.56083316
2.1503058389883003e-10	9.547279e-10	3.950598e-10	0.99089986	-2.0702589e-17	0.56083316
2.1754922153041664e-10	7.571979e-10	5.5966803e-10	0.99089986	-2.0702589e-17	0.56083316
2.200184765098038e-10	4.609031e-10	7.2427625e-10	0.9908997	-2.0702587e-17	0.5608334
2.2253710840700802e-10	2.3045155e-10	3.950598e-10	0.9908997	-2.070259e-17	0.56083345
2.2500635543487434e-10	4.609031e-10	-2.9629485e-10	0.99089986	-2.070259e-17	0.5608334
2.2752497263985257e-10	6.58433e-10	0	0.99089986	-2.0702587e-17	0.5608333
2.300436217833205e-10	8.39502e-10	4.609031e-10	0.9908997	-2.0702589e-17	0.56083316
2.3251286525400643e-10	8.230412e-10	4.609031e-10	0.9908997	-2.0702589e-17	0.5608333
2.350315048941395e-10	3.6213813e-10	5.2674637e-10	0.9908997	-2.0702589e-17	0.5608333
2.375007486082897e-10	4.2798143e-10	1.975299e-10	0.9908997	-2.0702587e-17	0.5608334
2.4001937960030084e-10	5.2674637e-10	-3.292165e-10	0.9908997	-2.0702589e-17	0.56083316
2.425380078892475e-10	1.2510226e-09	-1.3168659e-10	0.9908997	-2.0702589e-17	0.56083316
2.4500724932256836e-10	1.4485525e-09	4.609031e-10	0.99089986	-2.0702587e-17	0.5608333
2.475258800571751e-10	8.5596286e-10	6.58433e-10	0.9908997	-2.070259e-17	0.56083345
2.50044515630603e-10	4.609031e-10	6.58433e-10	0.9908997	-2.0702587e-17	0.56083316
2.5251375510911713e-10	3.950598e-10	2.3045155e-10	0.99089986	-2.0702587e-17	0.56083316
2.5503238225542126e-10	9.876494e-10	1.975299e-10	0.9908997	-2.070259e-17	0.56083316
2.575016263726196e-10	1.2016401e-09	3.292165e-10	0.9908997	-2.0702589e-17	0.56083345
2.600202519284868e-10	9.876494e-10	4.609031e-10	0.99089986	-2.0702587e-17	0.5608333
2.6253888275470084e-10	7.2427625e-10	5.925897e-10	0.9908997	-2.070259e-17	0.5608334
2.650081213076905e-10	3.292165e-10	8.5596286e-10	0.9908997	-2.070259e-17	0.5608333
2.6752675167116706e-10	2.9629485e-10	6.58433e-10	0.9908997	-2.0702587e-17	0.5608333
2.7004538927853095e-10	1.3168659e-10	1.975299e-10	0.99089986	-2.070259e-17	0.56083316
2.7251462697835396e-10	6.255113e-10	-2.6337318e-10	0.99089986	-2.0702589e-17	0.56083316
2.750332536289713e-10	8.888845e-10	0	0.9908997	-2.0702589e-17	0.5608333
2.7750249109983744e-10	7.407371e-10	1.8106906e-10	0.9908997	-2.0702587e-17	0.5608333
2.800211108635193e-10	6.748938e-10	6.255113e-10	0.9908997	-2.0702589e-17	0.56083316
2.8253974249721693e-10	5.1028554e-10	1.3168659e-10	0.9908997	-2.0702587e-17	0.5608333
2.85008980330377e-10	7.2427625e-10	6.5843296e-11	0.9908997	-2.0702587e-17	0.5608334
2.875276081753098e-10	9.0534535e-10	-3.292165e-10	0.9908997	-2.0702589e-17	0.5608333
2.9004623244546663e-10	1.1851794e-09	1.3168659e-10	0.99089986	-2.0702587e-17	0.5608333
2.925154780065394e-10	8.724237e-10	7.901196e-10	0.99089986	-2.0702587e-17	0.5608333
2.950340993568409e-10	7.7365875e-10	3.292165e-10	0.9908997	-2.070259e-17	0.56083316
2.97503341290868e-10	7.2427625e-10	4.609031e-10	0.99089986	-2.070259e-17	0.56083316
3.000219692495293e-10	4.938247e-10	6.255113e-10	0.9908997	-2.0702587e-17	0.5608333
3.0254059057436905e-10	3.292165e-10	3.950598e-10	0.9908997	-2.070259e-17	0.5608334
3.050098275373105e-10	2.4691235e-10	-1.3168659e-10	0.9908997	-2.070259e-17	0.56083345
3.075284443460683e-10	3.1275565e-10	-2.6337318e-10	0.99089986	-2.0702587e-17	0.5608334
3.1004708010900266e-10	9.547279e-10	-2.6337318e-10	0.99089986	-2.070259e-17	0.56083316
3.125163273987292e-10	9.711887e-10	3.950598e-10	0.9908997	-2.0702589e-17	0.5608333
3.150349359111646e-10	7.901196e-10	4.609031e-10	0.9908997	-2.0702587e-17	0.5608334
3.1750416504271073e-10	8.230412e-10	3.950598e-10	0.9908997	-2.070259e-17	0.56083316
3.200227911708753e-10	3.4567732e-10	5.2674637e-10	0.99089986	-2.070259e-17	0.56083316
3.2254141320928596e-10	2.6337318e-10	5.432072e-10	0.99089986	-2.0702587e-17	0.5608334
3.2501064729307703e-10	5.5966803e-10	1.3168659e-10	0.99089986	-2.0702587e-17	0.5608333
3.275292685018688e-10	6.9135464e-10	1.3168659e-10	0.99089986	-2.070259e-17	0.56083316
3.3004787624628253e-10	9.38267e-10	-3.2921648e-11	0.99089986	-2.0702587e-17	0.56083316
3.325171225676106e-10	8.888845e-10	3.292165e-10	0.99089986	-2.0702587e-17	0.5608333
3.3503574176611995e-10	9.876494e-10	2.6337318e-10	0.9908997	-2.070259e-17	0.56083316
3.375049739116534e-10	9.876494e-10	5.2674637e-10	0.9908997	-2.0702589e-17	0.56083316
3.4002359624785357e-10	1.1357969e-09	5.2674637e-10	0.9908997	-2.0702587e-17	0.56083316
3.4254221719485e-10	8.230412e-10	3.292165e-10	0.9908997	-2.0702589e-17	0.5608333
3.45011446262213e-10	1.0534927e-09	-8.230412e-11	0.99089986	-2.0702589e-17	0.56083316
3.4753006787720964e-10	1.0864144e-09	5.2674637e-10	0.99089986	-2.0702589e-17	0.56083316
3.5004868458949475e-10	7.2427625e-10	1.0534927e-09	0.9908997	-2.070259e-17	0.5608334
3.525179209386835e-10	3.6213813e-10	7.901196e-10	0.9908997	-2.070259e-17	0.5608333
3.550365481615018e-10	5.1028554e-10	5.925897e-10	0.99089986	-2.0702587e-17	0.5608333
3.5750578743523097e-10	8.230412e-10	4.609031e-10	0.9908997	-2.0702587e-17	0.5608333
3.600243989782257e-10	8.888845e-10	1.975299e-10	0.9908997	-2.0702589e-17	0.56083316
3.625430155930162e-10	1.1851794e-09	2.6337318e-10	0.9908997	-2.0702587e-17	0.56083316
3.650122468543633e-10	8.5596286e-10	3.950598e-10	0.9908997	-2.070259e-17	0.56083316
3.67530868957289e-10	8.065804e-10	2.6337318e-10	0.99089986	-2.0702589e-17	0.56083316
3.700001008208569e-10	7.901196e-10	5.2674637e-10	0.9908997	-2.070259e-17	0.56083316
3.7251871680767557e-10	6.090505e-10	5.925897e-10	0.9908997	-2.0702587e-17	0.5608333
3.750373367460526e-10	2.3045155e-10	-6.5843296e-11	0.99089986	-2.0702589e-17	0.56083316
3.77506556670885e-10	6.58433e-10	-4.609031e-10	0.9908997	-2.070259e-17	0.5608333
3.8002518257763925e-10	1.0534927e-09	-1.975299e-10	0.9908997	-2.0702587e-17	0.56083316
3.82543802089464e-10	1.2839443e-09	2.6337318e-10	0.9908997	-2.0702589e-17	0.56083304
3.850130427863065e-10	6.9135464e-10	5.925897e-10	0.9908997	-2.070259e-17	0.56083316
3.875316702051726e-10	7.078154e-10	3.292165e-10	0.9908997	-2.0702587e-17	0.5608333
3.9000090147984796e-10	4.2798143e-10	5.2674637e-10	0.9908997	-2.0702587e-17	0.56083316
3.925195078585076e-10	2.6337318e-10	6.5843296e-11	0.99089986	-2.0702589e-17	0.5608334
3.9503813510208854e-10	6.255113e-10	-3.292165e-10	0.9908997	-2.0702587e-17	0.56083304
3.975073728272963e-10	8.39502e-10	-6.5843296e-11	0.9908997	-2.0702587e-17	0.5608333
4.0002598527337664e-10	1.0864144e-09	6.5843296e-11	0.9908997	-2.070259e-17	0.56083316
4.025446050821867e-10	8.5596286e-10	3.950598e-10	0.9908997	-2.0702587e-17	0.5608334
4.050138293806263e-10	4.609031e-10	3.4567732e-10	0.9908997	-2.0702587e-17	0.56083316
4.0753244276823855e-10	1.0205711e-09	5.925897e-10	0.9908997	-2.070259e-17	0.5608333
4.100016791160062e-10	7.7365875e-10	5.7612887e-10	0.9908998	-2.0702589e-17	0.5608334
4.1252030059083767e-10	9.876494e-10	5.432072e-10	0.99089986	-2.0702587e-17	0.56083316
4.150389121778264e-10	5.432072e-10	6.58433e-10	0.9908997	-2.0702589e-17	0.5608334
4.175081559575375e-10	2.9629485e-10	4.609031e-10	0.9908997	-2.0702589e-17	0.56083316
4.2002676960642103e-10	7.901196e-10	1.1522577e-10	0.99089986	-2.0702589e-17	0.5608333
4.2254538454847614e-10	8.888845e-10	5.7612887e-10	0.9908997	-2.070259e-17	0.56083316
4.2501460992195616e-10	6.58433e-10	8.230412e-10	0.99089986	-2.070259e-17	0.5608333
4.2753323896404565e-10	2.3045155e-10	6.58433e-10	0.99089986	-2.070259e-17	0.5608333
4.3000245946846244e-10	2.4691235e-10	3.292165e-10	0.99089986	-2.0702587e-17	0.56083316
4.325210848627176e-10	6.58433e-10	1.3168659e-10	0.9908997	-2.0702589e-17	0.5608334
4.3503969701352797e-10	7.2427625e-10	1.3168659e-10	0.9908997	-2.0702587e-17	0.56083316
4.375089310173595e-10	9.876494e-10	1.3168659e-10	0.9908997	-2.070259e-17	0.5608333
4.4002755166910285e-10	1.1193361e-09	3.950598e-10	0.9908997	-2.0702589e-17	0.56083316
4.4254616760620945e-10	9.547279e-10	7.901196e-10	0.9908997	-2.0702589e-17	0.5608333
4.450153978069998e-10	3.950598e-10	5.925897e-10	0.99089986	-2.0702587e-17	0.56083316
4.475340166699739e-10	3.2921648e-11	5.925897e-10	0.9908997	-2.0702589e-17	0.56083316
4.5000325793084145e-10	5.7612887e-10	1.975299e-10	0.9908997	-2.070259e-17	0.56083316
4.525218673394382e-10	6.58433e-10	5.2674637e-10	0.9908997	-2.0702587e-17	0.56083304
4.550404871506599e-10	6.4197214e-10	5.925897e-10	0.9908997	-2.0702589e-17	0.5608333
4.575097255790895e-10	4.773639e-10	7.2427625e-10	0.9908997	-2.070259e-17	0.56083316
4.600283417256641e-10	4.773639e-10	3.292165e-10	0.9908997	-2.070259e-17	0.5608333
4.6254696582139675e-10	5.432072e-10	1.3168659e-10	0.9908997	-2.0702589e-17	0.5608333
4.650161921844104e-10	8.39502e-10	4.609031e-10	0.9908997	-2.0702589e-17	0.5608333
4.675348052983401e-10	6.255113e-10	6.58433e-10	0.99089986	-2.0702589e-17	0.5608333
4.700040356444508e-10	6.090505e-10	5.2674637e-10	0.99089986	-2.0702587e-17	0.5608334
4.725226689446391e-10	3.292165e-10	6.748938e-10	0.99089986	-2.070259e-17	0.5608333
4.75041268420816e-10	2.6337318e-10	5.2674637e-10	0.9908997	-2.0702587e-17	0.56083316
4.775105165257029e-10	4.9382474e-11	6.58433e-10	0.99089986	-2.0702587e-17	0.56083316
4.8002912645838e-10	-9.876495e-11	-6.5843296e-11	0.99089986	-2.0702589e-17	0.5608334
4.825477405463034e-10	7.2427625e-10	-2.1399071e-10	0.99089986	-2.0702587e-17	0.5608333
4.8501697811193e-10	7.2427625e-10	-3.6213813e-10	0.9908997	-2.0702589e-17	0.5608334
4.875356017691018e-10	7.407371e-10	9.876495e-11	0.9908997	-2.070259e-17	0.56083316
4.900048281627121e-10	1.0534927e-09	1.3168659e-10	0.99089986	-2.0702589e-17	0.56083304
4.925234539045606e-10	5.5966803e-10	2.6337318e-10	0.99089986	-2.0702589e-17	0.5608333
4.950420710147077e-10	6.255113e-10	5.2674637e-10	0.9908997	-2.070259e-17	0.5608333
4.975112930118296e-10	3.292165e-10	6.255113e-10	0.99089986	-2.0702589e-17	0.5608333
5.00029907066406e-10	3.6213813e-10	3.950598e-10	0.99089986	-2.0702587e-17	0.56083316
5.025485281376813e-10	4.938247e-10	1.3168659e-10	0.9908997	-2.070259e-17	0.5608334
5.050177749904051e-10	2.9629485e-10	3.292165e-10	0.9908997	-2.070259e-17	0.5608333
5.075363815501421e-10	4.938247e-10	0	0.9908997	-2.0702589e-17	0.56083316
5.100056138233662e-10	7.407371e-10	1.3168659e-10	0.99089986	-2.0702589e-17	0.5608333
5.125242331081973e-10	7.901196e-10	1.975299e-10	0.9908997	-2.0702589e-17	0.5608333
5.150428341577162e-10	5.5966803e-10	2.4691235e-10	0.9908997	-2.0702587e-17	0.56083304
5.175120642566903e-10	3.7859896e-10	1.975299e-10	0.9908997	-2.0702587e-17	0.56083304
5.200306900975992e-10	9.38267e-10	1.3168659e-10	0.9908997	-2.0702589e-17	0.56083316
5.225493070043292e-10	7.901196e-10	3.6213813e-10	0.9908997	-2.0702589e-17	0.56083316
5.250185253045448e-10	5.5966803e-10	1.3168659e-10	0.9908997	-2.0702587e-17	0.5608333
5.275371368296176e-10	6.58433e-10	0	0.9908997	-2.0702589e-17	0.5608333
5.300063828003745e-10	1.1193361e-09	-1.975299e-10	0.9908997	-2.0702589e-17	0.5608333
5.325250059827302e-10	1.3497876e-09	2.6337318e-10	0.99089986	-2.0702587e-17	0.56083316
5.350436179244711e-10	8.5596286e-10	6.255113e-10	0.9908997	-2.070259e-17	0.56083316
5.375128524215626e-10	5.2674637e-10	7.901196e-10	0.9908997	-2.070259e-17	0.56083316
5.400314570201985e-10	3.950598e-10	5.2674637e-10	0.9908997	-2.0702587e-17	0.5608333
5.425007067668733e-10	4.2798143e-10	6.58433e-10	0.9908997	-2.0702587e-17	0.56083316
5.450193096527661e-10	4.938247e-10	1.3168659e-10	0.9908997	-2.0702589e-17	0.5608334
5.475379346713191e-10	5.5966803e-10	6.5843296e-11	0.99089986	-2.0702587e-17	0.56083316
5.500071610445605e-10	5.2674637e-10	1.975299e-10	0.9908997	-2.070259e-17	0.56083345
5.525257682569791e-10	5.7612887e-10	4.609031e-10	0.99089986	-2.0702589e-17	0.5608334
5.550443910277917e-10	4.938247e-10	3.950598e-10	0.99089986	-2.0702587e-17	0.56083316
5.575136208349924e-10	3.6213813e-10	3.950598e-10	0.9908997	-2.070259e-17	0.5608333
5.600322370980476e-10	3.292165e-10	1.975299e-10	0.9908997	-2.0702589e-17	0.5608333
5.625014700671996e-10	3.950598e-10	3.2921648e-11	0.9908997	-2.070259e-17	0.56083316
5.650200907996644e-10	2.9629485e-10	-8.230412e-11	0.99089986	-2.070259e-17	0.56083345
5.675387070123597e-10	1.0205711e-09	2.9629485e-10	0.99089986	-2.0702589e-17	0.56083304
5.700079253973697e-10	7.2427625e-10	6.58433e-10	0.9908997	-2.0702589e-17	0.5608334
5.72526549626772e-10	6.58433e-10	6.255113e-10	0.9908997	-2.0702587e-17	0.5608334
5.750451632931958e-10	8.39502e-10	6.58433e-10	0.9908997	-2.0702589e-17	0.5608333
5.775143940956189e-10	2.6337318e-10	3.7859896e-10	0.9908997	-2.0702589e-17	0.5608333
5.800330156352681e-10	2.6337318e-10	3.1275565e-10	0.9908997	-2.0702587e-17	0.5608334
5.825022422271608e-10	7.571979e-10	3.292165e-10	0.99089986	-2.0702587e-17	0.5608334
5.850208577555413e-10	6.58433e-10	5.432072e-10	0.9908997	-2.070259e-17	0.5608333
5.875394769646672e-10	4.2798143e-10	5.925897e-10	0.9908997	-2.0702587e-17	0.56083316
5.900087054789703e-10	-1.6460824e-10	3.950598e-10	0.9908997	-2.0702587e-17	0.56083345
5.925273187782865e-10	3.6213813e-10	1.3168659e-10	0.99089986	-2.070259e-17	0.5608334
5.950459341793291e-10	5.925897e-10	6.5843296e-11	0.9908997	-2.0702587e-17	0.56083316
5.975151604624231e-10	4.938247e-10	2.6337318e-10	0.9908997	-2.0702587e-17	0.5608334
6.000337762606066e-10	5.5966803e-10	2.6337318e-10	0.9908997	-2.0702589e-17	0.5608333
6.025030204918492e-10	9.711887e-10	1.975299e-10	0.99089986	-2.0702589e-17	0.5608334
6.050216283875998e-10	3.292165e-10	3.292165e-10	0.9908997	-2.0702587e-17	0.56083316
6.075402381378137e-10	2.3045155e-10	3.950598e-10	0.99089986	-2.070259e-17	0.5608333
6.100094527055138e-10	3.6213813e-10	-6.5843296e-11	0.99089986	-2.0702589e-17	0.5608334
6.125280803902973e-10	9.876494e-10	0	0.9908997	-2.0702587e-17	0.5608334
6.150467071862899e-10	8.5596286e-10	3.292165e-10	0.9908997	-2.0702589e-17	0.56083345
6.175159283740928e-10	7.7365875e-10	6.58433e-10	0.99089986	-2.0702589e-17	0.5608334
6.200345526060367e-10	4.609031e-10	5.2674637e-10	0.9908997	-2.0702587e-17	0.5608334
6.225037820098845e-10	4.609031e-10	6.5843296e-11	0.9908997	-2.0702587e-17	0.56083345
6.25022390247797e-10	6.58433e-10	2.6337318e-10	0.99089986	-2.0702589e-17	0.56083345
6.27541008509214e-10	4.609031e-10	2.3045155e-10	0.9908997	-2.0702587e-17	0.5608334
6.300102300744798e-10	9.218062e-10	1.975299e-10	0.9908997	-2.0702589e-17	0.5608333
6.325288451137668e-10	8.888845e-10	3.292165e-10	0.99089986	-2.070259e-17	0.5608333
6.350474641699778e-10	1.0534927e-09	6.58433e-10	0.9908997	-2.0702589e-17	0.5608334
6.375166915257748e-10	1.0534927e-09	8.230412e-10	0.9908997	-2.0702587e-17	0.5608334
6.400353152639372e-10	3.6213813e-10	5.5966803e-10	0.9908997	-2.070259e-17	0.56083345
6.42504531704122e-10	2.6337318e-10	3.292165e-10	0.9908997	-2.070259e-17	0.5608333
6.450231445761157e-10	4.609031e-10	2.1399071e-10	0.9908997	-2.0702587e-17	0.5608333
6.475417620492017e-10	7.571979e-10	-1.3168659e-10	0.9908997	-2.070259e-17	0.5608333
6.500109907527365e-10	8.5596286e-10	3.950598e-10	0.9908997	-2.0702589e-17	0.56083316
6.525296077120411e-10	2.3045155e-10	3.292165e-10	0.99089986	-2.070259e-17	0.5608333
6.550482219465734e-10	5.1028554e-10	1.975299e-10	0.9908997	-2.070259e-17	0.5608334
6.575174546700567e-10	5.5966803e-10	3.292165e-10	0.9908997	-2.0702589e-17	0.5608334
6.600360663355879e-10	9.38267e-10	3.950598e-10	0.99089986	-2.0702587e-17	0.56083316
6.625052906831504e-10	8.724237e-10	6.58433e-10	0.9908997	-2.0702587e-17	0.5608333
6.650238917372497e-10	5.925897e-10	6.58433e-10	0.9908997	-2.070259e-17	0.5608333
6.675425064295945e-10	4.938247e-10	3.950598e-10	0.9908997	-2.0702587e-17	0.5608333
6.700117427007897e-10	5.925897e-10	5.925897e-10	0.9908997	-2.0702587e-17	0.5608334
6.725303731647938e-10	2.3045155e-10	6.5843296e-11	0.9908997	-2.0702589e-17	0.5608334
6.750489867481136e-10	6.255113e-10	4.609031e-10	0.9908997	-2.0702587e-17	0.56083304
6.77518200174521e-10	2.6337318e-10	0	0.9908997	-2.0702587e-17	0.56083345
6.800368163030219e-10	6.4197214e-10	0	0.9908997	-2.070259e-17	0.5608333
6.825060580005971e-10	7.2427625e-10	0	0.9908997	-2.0702589e-17	0.5608334
6.850246661711981e-10	9.876494e-10	3.292165e-10	0.9908997	-2.0702589e-17	0.5608333
6.875432709116206e-10	9.876494e-10	7.2427625e-10	0.9908997	-2.0702589e-17	0.5608333
6.900124995615402e-10	3.6213813e-10	5.925897e-10	0.9908997	-2.0702589e-17	0.5608333
6.925311138662535e-10	6.58433e-10	0	0.99089986	-2.0702587e-17	0.56083345
6.950003360864166e-10	7.571979e-10	3.950598e-10	0.9908997	-2.0702587e-17	0.5608333
6.975189533724544e-10	7.2427625e-10	4.609031e-10	0.9908997	-2.0702589e-17	0.5608333
7.000375602268132e-10	5.925897e-10	3.950598e-10	0.9908997	-2.0702587e-17	0.5608334
7.025067935297107e-10	6.748938e-10	-1.3168659e-10	0.9908997	-2.0702587e-17	0.56083316
7.050254091934662e-10	3.6213813e-10	5.925897e-10	0.99089986	-2.0702589e-17	0.5608336
7.075440178490893e-10	4.2798143e-10	-1.3168659e-10	0.9908997	-2.0702587e-17	0.5608333
7.100132382591954e-10	7.571979e-10	3.292165e-10	0.99089986	-2.0702587e-17	0.56083345
7.125318538815941e-10	9.876494e-10	5.2674637e-10	0.9908997	-2.0702589e-17	0.5608334
7.150010986329268e-10	3.292165e-10	5.2674637e-10	0.99089986	-2.070259e-17	0.5608333
7.175197002860657e-10	1.6460824e-10	6.58433e-10	0.9908997	-2.0702587e-17	0.5608334
7.200383139604019e-10	4.2798143e-10	3.292165e-10	0.9908997	-2.070259e-17	0.5608334
7.225075317400416e-10	5.1028554e-10	3.292165e-10	0.99089986	-2.070259e-17	0.5608334
7.250261512296437e-10	7.2427625e-10	3.950598e-10	0.9908997	-2.0702589e-17	0.5608333
7.275447569998071e-10	9.218062e-10	1.3168659e-10	0.99089986	-2.070259e-17	0.5608334
7.300139881628298e-10	1.1522577e-09	3.950598e-10	0.9908997	-2.070259e-17	0.5608334
7.325325955518697e-10	1.1193361e-09	9.0534535e-10	0.9908997	-2.0702587e-17	0.5608334
7.350018235076828e-10	4.938247e-10	7.407371e-10	0.99089986	-2.0702589e-17	0.56083345
7.37520435323087e-10	2.6337318e-10	5.2674637e-10	0.9908997	-2.0702589e-17	0.56083316
7.400390457969965e-10	1.975299e-10	3.950598e-10	0.9908997	-2.0702587e-17	0.5608334
7.425082658705442e-10	8.888845e-10	0	0.9908997	-2.0702587e-17	0.5608334
7.450268823287931e-10	6.9135464e-10	3.7859896e-10	0.9908997	-2.0702589e-17	0.5608334
7.475454938046089e-10	7.2427625e-10	7.2427625e-10	0.9908997	-2.0702589e-17	0.56083345
7.500147242464124e-10	6.255113e-10	5.925897e-10	0.9908997	-2.0702589e-17	0.56083345
7.525333290876484e-10	7.2427625e-10	5.925897e-10	0.9908997	-2.0702589e-17	0.56083316
7.55002559859294e-10	3.292165e-10	3.6213813e-10	0.99089986	-2.070259e-17	0.56083316
7.575211683377278e-10	4.2798143e-10	0	0.99089986	-2.070259e-17	0.56083345
7.600397734000103e-10	4.2798143e-10	-1.3168659e-10	0.99089986	-2.070259e-17	0.5608333
7.62509004035982e-10	1.0534927e-09	1.3168659e-10	0.9908997	-2.0702589e-17	0.5608334
7.650276144310891e-10	4.938247e-10	-3.2921648e-11	0.99089986	-2.0702589e-17	0.5608333
7.675462373277337e-10	9.876494e-10	2.6337318e-10	0.9908997	-2.0702589e-17	0.5608333
7.700154614150778e-10	1.1522577e-09	2.6337318e-10	0.99089986	-2.070259e-17	0.5608333
7.725340640337004e-10	1.0864144e-09	6.58433e-10	0.99089986	-2.0702589e-17	0.56083316
7.750032935542167e-10	6.4197214e-10	7.571979e-10	0.9908997	-2.0702587e-17	0.56083316
7.775219012052256e-10	3.950598e-10	7.2427625e-10	0.9908997	-2.0702589e-17	0.5608334
7.800405087210811e-10	4.2798143e-10	1.3168659e-10	0.99089986	-2.0702587e-17	0.5608334
7.825097394908961e-10	9.218062e-10	-6.5843296e-11	0.9908997	-2.0702587e-17	0.5608334
7.850283369091436e-10	8.5596286e-10	1.3168659e-10	0.9908997	-2.070259e-17	0.5608334
7.875469607820783e-10	6.58433e-10	4.773639e-10	0.9908997	-2.0702589e-17	0.5608334
7.900161818868749e-10	6.9135464e-10	3.292165e-10	0.9908997	-2.0702587e-17	0.5608334
7.925347873746654e-10	9.547279e-10	7.2427625e-10	0.99089986	-2.070259e-17	0.5608333
7.950040079175014e-10	2.9629485e-10	6.58433e-10	0.9908997	-2.070259e-17	0.5608333
7.975226160833228e-10	6.58433e-10	1.6460824e-10	0.9908997	-2.0702587e-17	0.56083345
8.000412338725145e-10	7.901196e-10	2.6337318e-10	0.9908997	-2.0702589e-17	0.56083316
8.025104538624811e-10	7.901196e-10	4.115206e-10	0.9908997	-2.070259e-17	0.5608333
8.050290725648543e-10	3.292165e-10	5.2674637e-10	0.99089986	-2.0702587e-17	0.56083345
8.075476804338423e-10	5.925897e-10	7.2427625e-10	0.9908997	-2.070259e-17	0.5608336
8.100168936925528e-10	5.5966803e-10	4.609031e-10	0.9908997	-2.070259e-17	0.5608333
8.12535506798462e-10	5.925897e-10	1.6460824e-10	0.9908997	-2.0702589e-17	0.56083345
8.150047269967375e-10	3.6213813e-10	4.609031e-10	0.9908997	-2.0702587e-17	0.5608333
8.175233425338214e-10	8.230412e-11	6.5843296e-11	0.99089986	-2.0702589e-17	0.56083345
8.20041942007643e-10	4.609031e-10	-4.4444226e-10	0.99089986	-2.0702587e-17	0.56083345
8.225111705731336e-10	9.547279e-10	1.3168659e-10	0.99089986	-2.0702589e-17	0.5608334
8.250297773744822e-10	1.218101e-09	8.5596286e-10	0.9908997	-2.0702589e-17	0.56083316
8.275483903300948e-10	7.571979e-10	1.0534927e-09	0.99089986	-2.0702587e-17	0.56083316
8.300176115874095e-10	4.9382474e-11	9.876494e-10	0.99089986	-2.0702587e-17	0.5608334
8.325362121612172e-10	0	9.876495e-11	0.99089986	-2.0702589e-17	0.5608333
8.350054430961554e-10	2.6337318e-10	-1.975299e-10	0.9908997	-2.0702589e-17	0.56083316
8.375240455017518e-10	7.901196e-10	-3.950598e-10	0.99089986	-2.0702587e-17	0.56083316
8.400426658345115e-10	1.316866e-09	1.3168659e-10	0.99089986	-2.0702589e-17	0.5608333
8.42511879787905e-10	1.1851794e-09	7.2427625e-10	0.9908997	-2.070259e-17	0.5608334
8.450304955598199e-10	1.1193361e-09	8.5596286e-10	0.9908997	-2.0702587e-17	0.56083345
8.475490935176135e-10	6.58433e-10	7.078154e-10	0.99089986	-2.070259e-17	0.56083345
8.500183214204864e-10	2.6337318e-10	4.609031e-10	0.9908997	-2.070259e-17	0.56083345
8.525369298248416e-10	2.6337318e-10	2.6337318e-10	0.99089986	-2.0702587e-17	0.56083345
8.550061480431455e-10	2.3045155e-10	0	0.9908997	-2.0702587e-17	0.56083345
8.575247615184596e-10	6.255113e-10	6.5843296e-11	0.99089986	-2.070259e-17	0.5608334
8.600433649277348e-10	5.925897e-10	6.5843296e-11	0.9908997	-2.0702587e-17	0.5608336
8.625125868754913e-10	5.2674637e-10	1.975299e-10	0.9908997	-2.0702587e-17	0.5608334
8.650311954047978e-10	9.218062e-10	5.2674637e-10	0.9908997	-2.070259e-17	0.56083345
8.675004171786351e-10	1.0534927e-09	1.3168659e-10	0.9908997	-2.0702589e-17	0.56083345
8.700190189397879e-10	7.901196e-10	2.3045155e-10	0.9908997	-2.0702587e-17	0.5608334
8.725376370384091e-10	7.901196e-10	5.2674637e-10	0.9908997	-2.0702589e-17	0.5608334
8.750068624933055e-10	8.5596286e-10	5.925897e-10	0.9908997	-2.070259e-17	0.5608334
8.775254650168888e-10	2.6337318e-10	3.950598e-10	0.9908997	-2.0702587e-17	0.5608334
8.800440725325186e-10	5.432072e-10	1.3168659e-10	0.9908997	-2.070259e-17	0.5608336
8.82513303044389e-10	7.571979e-10	9.876495e-11	0.9908997	-2.070259e-17	0.5608334
8.850319055891808e-10	8.39502e-10	-1.3168659e-10	0.9908997	-2.0702589e-17	0.5608333
8.875011127740472e-10	1.0534927e-09	1.975299e-10	0.9908997	-2.0702587e-17	0.56083345