# t (s)	mx ()	my ()	mz ()	E_total (J)	MaxAngle (rad)
0	2.1541466e-10	3.2411013e-10	0.9952402	-1.2847277e-16	0.26547533
2.5070492512222134e-12	3.4519046e-10	3.267452e-10	0.9931591	-1.2840429e-16	0.23658168
5.024032958437802e-12	3.0039476e-10	5.629108e-10	0.9908095	-1.282304e-16	0.22453609
7.538276625605828e-12	3.16205e-11	9.802356e-10	0.9885855	-1.2792054e-16	0.22605613
1.0001236425231428e-11	-7.852424e-10	7.4308176e-10	0.98691577	-1.2745454e-16	0.23334089
1.251101752817489e-11	-1.0942011e-09	-8.2213303e-10	0.98567355	-1.2679477e-16	0.24137977
1.5020711131509126e-11	1.3438713e-09	-2.6034213e-09	0.98385656	-1.2590024e-16	0.245869
1.7530294230720572e-11	6.703546e-09	3.3728534e-10	0.9787112	-1.2463383e-16	0.261362
2.0039633293705564e-11	6.8049952e-09	1.2243722e-08	0.9636894	-1.222893e-16	0.32464495
2.250046890502973e-11	-2.5349103e-09	2.3789157e-08	0.92655826	-1.1855261e-16	0.40271473
2.500966192954921e-11	-2.884185e-08	2.5976242e-08	0.87613267	-1.1894235e-16	0.21440132
2.752022238501282e-11	-9.685886e-08	-1.5625798e-08	0.82150215	-1.1775361e-16	0.08981221
3.0034170495162395e-11	-6.051637e-08	-1.4591808e-07	0.75906414	-1.1530416e-16	0.08981022
3.250468225064251e-11	1.07045935e-07	-3.326266e-07	0.685705	-1.1339389e-16	0.08980689
3.503404174475141e-11	-1.3478765e-07	-5.4580147e-07	0.60171366	-1.1410587e-16	0.12260619
3.750913608264633e-11	-3.405528e-07	-4.4346237e-07	0.54795367	-1.162533e-16	0.13866426
4.003090518219359e-11	-2.2231848e-07	-3.1776892e-07	0.5285899	-1.1644464e-16	0.18552801
4.250227851015967e-11	-1.27204e-07	-3.328005e-07	0.5215356	-1.1630947e-16	0.216666
4.5022510828627214e-11	-7.735956e-08	-3.8274905e-07	0.51740843	-1.1641863e-16	0.23102355
4.7541936103994443e-11	-6.454403e-08	-4.0510375e-07	0.5137139	-1.1687649e-16	0.2356647
5.0011382258002305e-11	-8.178511e-08	-3.8863044e-07	0.5098283	-1.1753646e-16	0.2387004
5.2530006499620737e-11	-1.12308115e-07	-3.4537854e-07	0.5055893	-1.1823215e-16	0.24364045
5.504857879501788e-11	-1.3721717e-07	-2.9448898e-07	0.5012727	-1.1882865e-16	0.2468625
5.751769828622102e-11	-1.4671649e-07	-2.4859807e-07	0.49712718	-1.1928426e-16	0.24923877
6.003611871456483e-11	-1.4119871e-07	-2.0859287e-07	0.49306497	-1.196312e-16	0.24882813
6.250504402372041e-11	-1.2610914e-07	-1.7413542e-07	0.48926795	-1.1988147e-16	0.24681419
6.502328905651545e-11	-1.0626069e-07	-1.4349911e-07	0.4856057	-1.2006811e-16	0.24283764
6.754146966400367e-11	-8.541356e-08	-1.1579164e-07	0.4821837	-1.2020258e-16	0.23875159
7.001023883485247e-11	-6.671267e-08	-9.209998e-08	0.47908553	-1.2029628e-16	0.23530933
7.252835813985475e-11	-5.1457096e-08	-7.169158e-08	0.47620612	-1.2036292e-16	0.23291208
7.504648709523137e-11	-3.9038145e-08	-5.5546682e-08	0.4736196	-1.2040835e-16	0.23074406
7.751520467325458e-11	-2.9391256e-08	-4.3385963e-08	0.47136357	-1.2043829e-16	0.22845718
8.003328118858258e-11	-2.1425524e-08	-3.345449e-08	0.4693319	-1.2045853e-16	0.22771935
8.250198233944178e-11	-1.5457156e-08	-2.5949891e-08	0.467586	-1.2047138e-16	0.22669081
8.502003547797305e-11	-1.0640298e-08	-1.9941996e-08	0.4660377	-1.2047961e-16	0.22553724
8.753807689211596e-11	-7.0777224e-09	-1.513568e-08	0.46470487	-1.2048445e-16	0.224384
9.000674441782174e-11	-4.358359e-09	-1.1525673e-08	0.46358678	-1.2048694e-16	0.22392733
9.252474085173835e-11	-2.0026318e-09	-7.7786435e-09	0.46261802	-1.2048791e-16	0.22377616
9.504273830537385e-11	-3.5573064e-10	-3.8050003e-09	0.46180284	-1.2048784e-16	0.22356091
9.751136004678058e-11	-5.480887e-10	-1.1646885e-09	0.46113527	-1.2048718e-16	0.22332475
1.0002934724285788e-10	-1.2885354e-09	-6.798408e-10	0.4605715	-1.2048612e-16	0.22308645
1.0254731570796631e-10	-8.326732e-10	-1.2859004e-09	0.4601095	-1.2048494e-16	0.22287513
1.0501591230468577e-10	3.030298e-10	-8.7483387e-10	0.45974076	-1.2048371e-16	0.22268736
1.0753386547278653e-10	1.5335944e-09	3.16205e-10	0.45943707	-1.204825e-16	0.22252809
1.1000243176373905e-10	1.765478e-09	3.030298e-09	0.4591991	-1.2048138e-16	0.222403
1.1252037013248135e-10	7.9841767e-10	4.864287e-09	0.4590072	-1.2048036e-16	0.22229812
1.1503830178170969e-10	-2.1818145e-09	3.536226e-09	0.45885766	-1.2047948e-16	0.22221242
1.17506848465613e-10	-3.831351e-09	-1.1277979e-09	0.45874447	-1.2047871e-16	0.2221475
1.2002473963754216e-10	-1.1277979e-09	-3.7364893e-09	0.45865652	-1.2047802e-16	0.22209716
1.2254264896835638e-10	2.9196263e-09	-1.5599447e-09	0.4585908	-1.2047748e-16	0.22206226
1.2501117591049562e-10	4.2055266e-09	2.972327e-09	0.45854333	-1.2047702e-16	0.22203763
1.2752906057665332e-10	1.7549379e-09	5.744391e-09	0.4585085	-1.2047665e-16	0.2220203
1.3004693565550308e-10	-1.707507e-09	4.8221263e-09	0.45848426	-1.2047634e-16	0.22200812
1.3251542878805215e-10	-3.415014e-09	1.6021054e-09	0.45846835	-1.204761e-16	0.22200027
1.3503330399125858e-10	-2.1712745e-09	-1.011856e-09	0.458458	-1.2047593e-16	0.22199702
1.375017898062513e-10	1.2121192e-10	-1.1488782e-09	0.45845205	-1.2047576e-16	0.2219954
1.4001963227534774e-10	1.6864268e-09	2.9512467e-10	0.4584492	-1.2047567e-16	0.22199377
1.425374752032336e-10	1.6811567e-09	2.4558588e-09	0.45844844	-1.2047557e-16	0.22199567
1.4500596181999928e-10	-4.2160667e-11	2.1238438e-09	0.45844924	-1.2047551e-16	0.2219962
1.4752380618167038e-10	-1.1225277e-09	6.9565104e-10	0.45845088	-1.204755e-16	0.2219973
1.5004163332108596e-10	-4.795776e-10	-1.4229226e-10	0.45845306	-1.2047544e-16	0.22199947
1.5251008981220527e-10	5.270083e-10	-2.7931443e-10	0.45845532	-1.2047542e-16	0.22200081
1.5502792143432011e-10	1.322791e-09	4.795776e-10	0.45845786	-1.204754e-16	0.22200271
1.5754574818169603e-10	1.1963089e-09	1.4018422e-09	0.45846018	-1.2047539e-16	0.22200407
1.6001418742933734e-10	7.114613e-10	1.7602079e-09	0.4584623	-1.204754e-16	0.22200514
1.625320022524468e-10	2.3188368e-10	1.7338575e-09	0.45846426	-1.204754e-16	0.22200786
1.6500044613384804e-10	-3.0039476e-10	1.4387328e-09	0.45846596	-1.204754e-16	0.22200866
1.6751826049795537e-10	2.1080334e-11	1.1014475e-09	0.45846742	-1.204754e-16	0.22200894
1.7003606951303302e-10	7.694322e-10	6.6403055e-10	0.45846868	-1.2047539e-16	0.22200948
1.72504495375067e-10	1.1014475e-09	4.690374e-10	0.45846975	-1.204754e-16	0.22200948
1.7502229098451651e-10	1.6337259e-09	8.274031e-10	0.4584706	-1.204754e-16	0.22201055
1.7754010221728198e-10	1.9341206e-09	5.2173826e-10	0.45847136	-1.2047542e-16	0.22201055
1.8000853713852735e-10	2.0658728e-09	4.9538784e-10	0.45847195	-1.2047542e-16	0.22201028
1.825263371482635e-10	2.4084281e-09	4.5322718e-10	0.4584724	-1.2047539e-16	0.22201219
1.8504414212950954e-10	2.466399e-09	4.795776e-10	0.4584728	-1.2047542e-16	0.22201137
1.8751256523625952e-10	2.4874793e-09	4.690374e-10	0.45847312	-1.2047542e-16	0.22201164
1.9003036673708605e-10	2.5191e-09	5.9024935e-10	0.4584733	-1.2047542e-16	0.22201326
1.9254815822891583e-10	2.0079018e-09	8.695638e-10	0.45847347	-1.2047539e-16	0.22201219
1.9501658042085805e-10	1.88669e-09	8.063228e-10	0.4584736	-1.204754e-16	0.22201246
1.9753438034431063e-10	1.5599447e-09	9.855056e-10	0.45847368	-1.2047542e-16	0.22201219
2.0000281493479468e-10	1.3649516e-09	1.1963089e-09	0.45847374	-1.2047542e-16	0.22201164
2.0252059813647595e-10	1.0540167e-09	1.1910389e-09	0.45847377	-1.2047542e-16	0.22201246
2.0503839069247987e-10	5.5862887e-10	1.5230541e-09	0.45847383	-1.204754e-16	0.22201137
2.0750680472529433e-10	2.52964e-10	1.5441345e-09	0.45847383	-1.2047543e-16	0.22201164
2.1002460040066102e-10	1.05401674e-10	1.454543e-09	0.45847386	-1.2047542e-16	0.22201273
2.1254239494624824e-10	-1.4756234e-10	1.1910389e-09	0.45847386	-1.2047542e-16	0.22201191
2.1501081778733203e-10	-1.5283243e-10	1.1699586e-09	0.45847386	-1.2047542e-16	0.22201246
2.175286096379063e-10	-2.4769392e-10	1.0645569e-09	0.45847386	-1.2047542e-16	0.22201246
2.2004640511206704e-10	-3.4782552e-10	1.1804987e-09	0.45847386	-1.2047542e-16	0.22201191
2.2251482552810868e-10	-3.79446e-10	1.2226594e-09	0.45847386	-1.2047542e-16	0.22201219
2.2503261575501845e-10	-3.7417594e-10	1.2437397e-09	0.45847383	-1.2047542e-16	0.22201191
2.275010353886556e-10	-4.216067e-10	1.2700901e-09	0.45847386	-1.2047542e-16	0.22201191
2.3001882567683737e-10	-4.2687676e-10	1.1014475e-09	0.45847383	-1.2047542e-16	0.22201246
2.3253661403999783e-10	-2.7404434e-10	1.1383381e-09	0.45847383	-1.2047542e-16	0.22201191
2.350050350808465e-10	-4.0579642e-10	8.274031e-10	0.45847383	-1.2047542e-16	0.22201246
2.3752283506498185e-10	-2.0553326e-10	6.2186983e-10	0.45847383	-1.2047542e-16	0.222013
2.400406238342591e-10	-3.16205e-11	6.429502e-10	0.45847383	-1.2047542e-16	0.22201246
2.4250904816007676e-10	-2.6350418e-11	7.7997236e-10	0.45847383	-1.2047542e-16	0.22201219
2.45026833075018e-10	-1.05401674e-10	6.9565104e-10	0.45847383	-1.204754e-16	0.22201191
2.4754462689494917e-10	9.48615e-11	8.1686297e-10	0.45847383	-1.2047542e-16	0.22201219
2.5001305411967356e-10	-5.2700837e-11	9.538851e-10	0.45847383	-1.2047542e-16	0.22201246
2.5253084112128036e-10	-1.2121192e-10	9.1699454e-10	0.45847383	-1.2047542e-16	0.22201164
2.550486223523162e-10	-2.0026318e-10	8.642937e-10	0.45847383	-1.2047542e-16	0.222013
2.5751704765959823e-10	-1.89723e-10	7.5362194e-10	0.45847383	-1.204754e-16	0.22201273
2.6003484620282805e-10	-3.4782552e-10	5.9551947e-10	0.45847383	-1.2047542e-16	0.22201246
2.6250326328867714e-10	-1.5283243e-10	7.957826e-10	0.45847383	-1.2047542e-16	0.22201219
2.6502105219468993e-10	-5.2700834e-12	8.3794327e-10	0.45847383	-1.2047542e-16	0.22201246
2.675388398336233e-10	-5.797092e-11	7.3254164e-10	0.45847383	-1.2047542e-16	0.22201219
2.7000725484498946e-10	-5.2700837e-11	8.7483387e-10	0.45847383	-1.2047542e-16	0.22201273
2.725250495288716e-10	-2.0026318e-10	8.2213303e-10	0.45847383	-1.2047542e-16	0.22201191
2.7504284995818456e-10	-1.5283243e-10	7.114613e-10	0.45847383	-1.204754e-16	0.22201273
2.7751125799442924e-10	-2.6877425e-10	6.2186983e-10	0.45847383	-1.2047542e-16	0.22201273
2.800290620721993e-10	-1.5283243e-10	6.060596e-10	0.45847383	-1.2047542e-16	0.22201219
2.825468478903884e-10	-6.8511086e-11	6.1659977e-10	0.45847383	-1.204754e-16	0.22201246
2.850152692744523e-10	-1.1594184e-10	8.8537405e-10	0.45847383	-1.204754e-16	0.22201273
2.875330669843914e-10	-2.3188368e-10	9.275347e-10	0.45847383	-1.2047542e-16	0.22201219
2.9000148328048784e-10	-2.6350416e-10	7.747023e-10	0.45847383	-1.204754e-16	0.22201273
2.9251926559577655e-10	-5.2700834e-12	6.1659977e-10	0.45847383	-1.2047542e-16	0.22201164
2.9503706091077174e-10	2.6350418e-11	7.378117e-10	0.45847383	-1.204754e-16	0.22201246
2.97505482273212e-10	1.5283243e-10	6.429502e-10	0.45847383	-1.2047542e-16	0.22201273
3.0002327969730256e-10	1.4756234e-10	7.5362194e-10	0.45847383	-1.2047542e-16	0.22201191
3.0254106847616005e-10	1.05401674e-10	9.0645436e-10	0.45847383	-1.2047542e-16	0.222013
3.0500948833570766e-10	1.05401674e-10	8.063228e-10	0.45847383	-1.2047542e-16	0.22201326
3.0752727761638255e-10	-8.959142e-11	8.274031e-10	0.45847383	-1.2047542e-16	0.22201246
3.100450689733045e-10	-3.16205e-11	7.694322e-10	0.45847383	-1.204754e-16	0.222013
3.1251348024421255e-10	-4.2160667e-11	1.0013159e-09	0.45847377	-1.2047542e-16	0.22201191
3.1503128146617005e-10	-5.2700837e-11	1.0961774e-09	0.45847383	-1.204754e-16	0.22201246
3.175490816884318e-10	-7.378117e-11	9.0645436e-10	0.45847383	-1.2047542e-16	0.22201191
3.200175024658389e-10	-6.3241e-11	8.339907e-10	0.45847377	-1.2047542e-16	0.22201191
3.225352992410228e-10	-3.16205e-11	7.272715e-10	0.45847383	-1.204754e-16	0.22201246
3.2500371472279257e-10	6.8511086e-11	8.274031e-10	0.45847383	-1.2047542e-16	0.22201273
3.275214913677204e-10	3.267452e-10	9.486151e-10	0.45847383	-1.2047542e-16	0.22201246
3.3003928519761464e-10	1.9499309e-10	1.0540167e-09	0.45847383	-1.2047542e-16	0.222013
3.325077191859096e-10	2.1607342e-10	1.0961774e-09	0.45847383	-1.2047542e-16	0.22201219
3.350255008283286e-10	1.4229226e-10	1.0803671e-09	0.45847377	-1.2047542e-16	0.22201246
3.3754329099828885e-10	2.6350416e-10	1.1436081e-09	0.45847383	-1.2047542e-16	0.22201219
3.400117069063906e-10	-4.743075e-11	1.0909073e-09	0.45847377	-1.2047543e-16	0.22201219
3.4252950813638823e-10	-1.581025e-10	1.0961774e-09	0.45847383	-1.204754e-16	0.222013
3.450472935803581e-10	-1.26482e-10	9.275347e-10	0.45847383	-1.2047542e-16	0.22201164
3.475157177496203e-10	-3.16205e-11	7.4308176e-10	0.45847383	-1.2047542e-16	0.22201219
3.5003350791707324e-10	7.378117e-11	7.1673134e-10	0.45847383	-1.2047542e-16	0.222013
3.5250193044569814e-10	-2.3715377e-10	7.114613e-10	0.45847383	-1.2047542e-16	0.22201219
3.550197094472503e-10	-1.7918284e-10	8.537535e-10	0.45847383	-1.2047542e-16	0.22201246
3.5753751329573143e-10	1.581025e-11	7.009211e-10	0.45847383	-1.2047542e-16	0.22201219
3.6000594099586036e-10	3.6890584e-11	6.798408e-10	0.45847383	-1.2047542e-16	0.22201219
3.6252374031070643e-10	1.3702217e-10	6.6403055e-10	0.45847383	-1.2047542e-16	0.22201246
3.6504152789816747e-10	1.0013159e-10	8.326732e-10	0.45847383	-1.2047542e-16	0.22201191
3.6750995013487835e-10	-4.743075e-11	9.591552e-10	0.45847383	-1.2047542e-16	0.22201219
3.700277330643626e-10	-1.4229226e-10	9.011843e-10	0.45847383	-1.2047542e-16	0.22201273
3.725455194580187e-10	-1.05401674e-10	8.959142e-10	0.45847383	-1.2047542e-16	0.22201219
3.7501394420983115e-10	-4.2160667e-11	7.7997236e-10	0.45847383	-1.2047542e-16	0.22201191
3.775317280294485e-10	4.743075e-11	6.0078953e-10	0.45847383	-1.204754e-16	0.22201273
3.8000015450641533e-10	6.8511086e-11	6.798408e-10	0.45847383	-1.2047542e-16	0.22201164
3.8251794793342826e-10	-1.0540167e-11	7.5362194e-10	0.45847383	-1.2047542e-16	0.22201246
3.8503574041629156e-10	1.10671756e-10	7.58892e-10	0.45847383	-1.2047542e-16	0.22201164
3.875041644717625e-10	1.7391276e-10	7.9051254e-10	0.45847383	-1.2047542e-16	0.22201191
3.90021941450638e-10	1.2121192e-10	9.328048e-10	0.45847383	-1.2047542e-16	0.22201326
3.925397334354467e-10	6.8511086e-11	1.1910389e-09	0.45847383	-1.2047542e-16	0.22201219
3.9500816371765277e-10	4.2160667e-11	9.802356e-10	0.45847383	-1.2047542e-16	0.22201273
3.975259519257679e-10	-1.10671756e-10	9.802356e-10	0.45847383	-1.2047542e-16	0.222013
4.000437393661821e-10	-2.3188368e-10	1.0276663e-09	0.45847383	-1.2047542e-16	0.22201219
4.0251216493340267e-10	-1.3702217e-10	8.8010393e-10	0.45847383	-1.2047542e-16	0.22201219
4.0502996409359864e-10	5.797092e-11	9.0645436e-10	0.45847383	-1.2047542e-16	0.22201191
4.075477514911164e-10	7.905125e-11	1.0223962e-09	0.45847383	-1.2047542e-16	0.22201246
4.10016179157963e-10	1.0013159e-10	8.1686297e-10	0.45847383	-1.2047542e-16	0.22201273
4.12533971484691e-10	6.8511086e-11	8.274031e-10	0.45847383	-1.2047542e-16	0.22201164
4.1500239085130633e-10	-1.4756234e-10	7.2200146e-10	0.45847383	-1.2047542e-16	0.22201246
4.1752017754506773e-10	-1.89723e-10	7.694322e-10	0.45847377	-1.2047542e-16	0.22201273
4.2003797231417046e-10	-7.905125e-11	6.0078953e-10	0.45847383	-1.2047542e-16	0.22201246
4.225064106309303e-10	-4.2160667e-11	6.0078953e-10	0.45847383	-1.2047542e-16	0.22201219
4.250241918291164e-10	-2.6350416e-10	8.7483387e-10	0.45847383	-1.2047542e-16	0.22201219
4.275419863264399e-10	-2.2134351e-10	6.1659977e-10	0.45847383	-1.2047542e-16	0.22201191
4.3001040119039125e-10	-5.797092e-11	6.0078953e-10	0.45847383	-1.2047542e-16	0.22201246
4.325281926015846e-10	3.16205e-11	5.3227844e-10	0.45847383	-1.2047542e-16	0.22201164
4.3504598494209613e-10	2.0026318e-10	7.378117e-10	0.45847383	-1.2047542e-16	0.22201273
4.375144053280984e-10	2.1607342e-10	6.798408e-10	0.45847383	-1.2047542e-16	0.222013
4.4003219230466024e-10	3.0566485e-10	7.272715e-10	0.45847383	-1.2047542e-16	0.22201219
4.425006147466167e-10	2.2661359e-10	8.2213303e-10	0.45847383	-1.2047543e-16	0.22201246
4.4501840796363144e-10	2.2661359e-10	1.0434765e-09	0.45847377	-1.2047542e-16	0.22201246
4.475361998553842e-10	8.4321335e-11	1.0171262e-09	0.45847383	-1.2047542e-16	0.22201191
4.500046162614796e-10	7.905125e-11	9.907757e-10	0.45847383	-1.204754e-16	0.22201246
4.525224118933378e-10	-9.48615e-11	7.1673134e-10	0.45847383	-1.2047544e-16	0.22201191
4.5504020371369676e-10	-8.959142e-11	6.745707e-10	0.45847383	-1.2047542e-16	0.22201246
4.5750862918903203e-10	1.0540167e-11	5.2173826e-10	0.45847383	-1.2047542e-16	0.222013
4.600264182118109e-10	3.6890584e-11	6.9565104e-10	0.45847383	-1.2047542e-16	0.22201219
4.6254421364707884e-10	1.7918284e-10	6.1659977e-10	0.45847383	-1.2047542e-16	0.222013
4.6501263774203557e-10	1.581025e-11	6.5876044e-10	0.45847383	-1.2047542e-16	0.22201219
4.675304283694267e-10	1.6864267e-10	9.222646e-10	0.45847383	-1.2047542e-16	0.22201219
4.700482128890872e-10	4.2160667e-11	7.9051254e-10	0.45847383	-1.204754e-16	0.22201246
4.725166430515899e-10	-1.3175208e-10	8.010527e-10	0.45847383	-1.2047542e-16	0.22201191
4.750344313511328e-10	7.905125e-11	6.6403055e-10	0.45847383	-1.2047542e-16	0.22201273
4.77502855234807e-10	2.1080335e-10	8.8537405e-10	0.45847383	-1.204754e-16	0.22201246
4.800206527984477e-10	3.16205e-11	6.534904e-10	0.45847383	-1.204754e-16	0.22201191
4.825384312509512e-10	7.905125e-11	5.375485e-10	0.45847383	-1.2047542e-16	0.222013
4.850068534498505e-10	-8.4321335e-11	5.744391e-10	0.45847383	-1.2047542e-16	0.222013
4.875246387800868e-10	2.1607342e-10	4.795776e-10	0.45847383	-1.2047542e-16	0.22201246
4.900424437141523e-10	1.581025e-10	6.6403055e-10	0.45847383	-1.2047542e-16	0.22201273
4.92510859744769e-10	8.4321335e-11	7.272715e-10	0.45847383	-1.2047542e-16	0.22201219
4.950286536596258e-10	-7.905125e-11	8.3794327e-10	0.45847377	-1.204754e-16	0.22201219
4.975464473374841e-10	-2.1607342e-10	6.3241e-10	0.45847383	-1.2047542e-16	0.22201191
5.000148667531013e-10	-1.8445293e-10	4.3741694e-10	0.45847383	-1.2047542e-16	0.22201191
5.025326470921902e-10	3.16205e-11	4.795776e-10	0.45847383	-1.2047542e-16	0.222013
5.050010803417996e-10	1.581025e-11	6.060596e-10	0.45847383	-1.204754e-16	0.222013
5.075188694933078e-10	2.1607342e-10	5.428186e-10	0.45847383	-1.2047542e-16	0.22201219
5.100366646966642e-10	1.7391276e-10	1.011856e-09	0.45847383	-1.2047542e-16	0.22201273
5.125050829448168e-10	5.2700837e-11	1.0645569e-09	0.45847383	-1.2047542e-16	0.22201246
5.150228744164628e-10	-2.8985458e-10	1.075097e-09	0.45847383	-1.204754e-16	0.22201246
5.175406764964191e-10	-3.530956e-10	9.855056e-10	0.45847383	-1.2047542e-16	0.22201246
5.2000908639088e-10	-1.7918284e-10	8.274031e-10	0.45847383	-1.2047542e-16	0.22201219
5.225268867357952e-10	-2.3188368e-10	7.641621e-10	0.45847383	-1.2047542e-16	0.22201246
5.250446872479713e-10	-1.8445293e-10	6.693006e-10	0.45847383	-1.2047542e-16	0.22201219
5.275131016056103e-10	2.2134351e-10	9.486151e-10	0.45847377	-1.2047542e-16	0.22201219
5.300308948105762e-10	-1.0013159e-10	9.696953e-10	0.45847383	-1.204754e-16	0.222013
5.325486801324537e-10	4.2160667e-11	9.907757e-10	0.45847383	-1.2047542e-16	0.22201191
5.350171089919047e-10	-3.16205e-11	8.432134e-10	0.45847383	-1.2047542e-16	0.22201246
5.375348991682354e-10	-1.26482e-10	8.5902363e-10	0.45847383	-1.2047542e-16	0.22201219
5.4000332333327e-10	-1.4229226e-10	8.8537405e-10	0.45847383	-1.2047542e-16	0.22201219
5.425211070446201e-10	-3.1093492e-10	6.3768013e-10	0.45847383	-1.204754e-16	0.222013
5.450389014396484e-10	-2.3188368e-10	5.05928e-10	0.45847383	-1.2047542e-16	0.22201191
5.475073152240159e-10	-6.8511086e-11	6.113297e-10	0.45847383	-1.2047542e-16	0.22201219
5.500251035211227e-10	6.8511086e-11	3.6890585e-10	0.45847377	-1.2047542e-16	0.222013
5.525429007188658e-10	1.05401674e-10	4.888002e-10	0.45847383	-1.204754e-16	0.22201219
5.550113254459568e-10	4.743075e-11	6.745707e-10	0.45847383	-1.2047542e-16	0.22201191
5.575291142703064e-10	1.1594184e-10	6.060596e-10	0.45847383	-1.204754e-16	0.22201246
5.600469046859764e-10	-5.2700834e-12	4.0052636e-10	0.45847383	-1.2047542e-16	0.22201219
5.625153313251541e-10	1.89723e-10	6.4822026e-10	0.45847383	-1.2047542e-16	0.22201246
5.650331095416125e-10	2.582341e-10	7.641621e-10	0.45847383	-1.2047542e-16	0.22201219
5.675015490319825e-10	1.05401674e-10	5.9551947e-10	0.45847377	-1.2047542e-16	0.22201191
5.700193350233774e-10	2.4769392e-10	6.3241e-10	0.45847383	-1.2047542e-16	0.22201273
5.725371274847085e-10	2.582341e-10	7.9051254e-10	0.45847383	-1.2047542e-16	0.22201246
5.750055483817615e-10	3.530956e-10	8.3794327e-10	0.45847377	-1.2047542e-16	0.22201273
5.77523336883046e-10	2.7931443e-10	7.9051254e-10	0.45847383	-1.2047542e-16	0.22201219
5.800411248173067e-10	3.8998618e-10	6.429502e-10	0.45847383	-1.2047542e-16	0.22201246
5.825095547116675e-10	2.9512467e-10	7.957826e-10	0.45847383	-1.2047542e-16	0.22201219
5.850273537519163e-10	3.4255543e-10	9.275347e-10	0.45847383	-1.2047542e-16	0.22201219
5.875451433626373e-10	2.2661359e-10	9.538851e-10	0.45847383	-1.2047542e-16	0.22201246
5.900135625351817e-10	1.3702217e-10	9.855056e-10	0.45847383	-1.2047542e-16	0.222013
5.925313626675555e-10	7.905125e-11	9.960458e-10	0.45847383	-1.204754e-16	0.22201191
5.95049158903483e-10	-5.2700837e-11	7.7997236e-10	0.45847383	-1.2047542e-16	0.22201273
5.97517574930289e-10	8.959142e-11	7.852424e-10	0.45847383	-1.2047542e-16	0.222013
6.000353633386928e-10	7.905125e-11	9.328048e-10	0.45847383	-1.2047542e-16	0.22201191
6.025037908464007e-10	5.2700834e-12	7.272715e-10	0.45847377	-1.2047542e-16	0.22201191
6.050215808813351e-10	1.633726e-10	7.061912e-10	0.45847383	-1.2047542e-16	0.22201219
6.075393806882448e-10	1.7391276e-10	8.010527e-10	0.45847383	-1.2047542e-16	0.22201219
6.100077918683249e-10	2.4769392e-10	9.275347e-10	0.45847383	-1.2047542e-16	0.22201273
6.125255773929779e-10	1.8445293e-10	9.696953e-10	0.45847383	-1.2047542e-16	0.22201191
6.150433767489272e-10	1.633726e-10	9.222646e-10	0.45847383	-1.2047542e-16	0.222013
6.175118032764509e-10	3.16205e-11	9.43345e-10	0.45847377	-1.204754e-16	0.222013
6.200295890049297e-10	-4.743075e-11	6.798408e-10	0.45847383	-1.2047542e-16	0.22201219
6.225473896086566e-10	1.2121192e-10	8.326732e-10	0.45847377	-1.2047542e-16	0.222013
6.250158160645269e-10	-3.6890584e-11	7.009211e-10	0.45847383	-1.2047542e-16	0.22201246
6.27533603995881e-10	-1.3702217e-10	8.063228e-10	0.45847383	-1.2047542e-16	0.22201219
6.300020272910016e-10	-1.581025e-11	8.695638e-10	0.45847383	-1.2047542e-16	0.22201246
6.325198131388338e-10	-2.52964e-10	8.906441e-10	0.45847383	-1.2047542e-16	0.22201164
6.350376073363069e-10	-4.2160667e-11	7.9051254e-10	0.45847383	-1.2047542e-16	0.22201219
6.375060276802073e-10	3.6890584e-11	7.641621e-10	0.45847383	-1.204754e-16	0.22201326
6.400238160662914e-10	1.7391276e-10	6.1659977e-10	0.45847383	-1.204754e-16	0.22201191
6.42541606195659e-10	1.26482e-10	6.534904e-10	0.45847383	-1.2047542e-16	0.22201273
6.450100313176448e-10	0	7.58892e-10	0.45847383	-1.2047542e-16	0.22201273
6.475278211986943e-10	2.0026318e-10	7.58892e-10	0.45847383	-1.2047542e-16	0.22201219
6.500456155515432e-10	2.3188368e-10	8.906441e-10	0.45847383	-1.2047542e-16	0.22201219
6.525140329286959e-10	1.6864267e-10	9.960458e-10	0.45847383	-1.2047542e-16	0.22201191
6.550318279920742e-10	-2.6350418e-11	8.695638e-10	0.45847383	-1.2047542e-16	0.22201246
6.575002428698061e-10	-2.1080335e-10	8.274031e-10	0.45847383	-1.2047542e-16	0.22201273
6.600180269300486e-10	3.6890584e-11	7.694322e-10	0.45847383	-1.2047542e-16	0.22201246
6.625358269237417e-10	-1.3702217e-10	6.534904e-10	0.45847383	-1.2047542e-16	0.22201273
6.650042581564284e-10	1.2121192e-10	7.4308176e-10	0.45847383	-1.2047542e-16	0.222013
6.675220420255126e-10	-4.743075e-11	8.2213303e-10	0.45847383	-1.2047542e-16	0.22201246
6.700398298090715e-10	6.3241e-11	6.903809e-10	0.45847383	-1.2047542e-16	0.222013
6.725082590311327e-10	1.3175208e-10	7.272715e-10	0.45847383	-1.2047542e-16	0.22201219
6.7502605097781e-10	1.3175208e-10	7.58892e-10	0.45847383	-1.2047542e-16	0.22201246
6.775438361731468e-10	-2.6350418e-11	7.9051254e-10	0.45847383	-1.2047542e-16	0.22201191
6.800122537348194e-10	-1.581025e-11	8.274031e-10	0.45847383	-1.2047542e-16	0.22201191
6.825300460446402e-10	6.8511086e-11	7.1673134e-10	0.45847383	-1.204754e-16	0.222013
6.850478390116775e-10	-6.3241e-11	9.538851e-10	0.45847383	-1.2047542e-16	0.22201191
6.875162594981612e-10	1.26482e-10	5.5335875e-10	0.45847383	-1.2047542e-16	0.22201219
6.900340624405347e-10	1.4756234e-10	6.745707e-10	0.45847383	-1.2047542e-16	0.222013
6.925024773762031e-10	1.6864267e-10	7.694322e-10	0.45847383	-1.2047542e-16	0.22201219
6.95020268443353e-10	-1.4756234e-10	8.8010393e-10	0.45847383	-1.2047542e-16	0.22201246
6.975380630352681e-10	-1.5283243e-10	7.2200146e-10	0.45847383	-1.204754e-16	0.22201191
7.000064789399383e-10	-1.0013159e-10	6.2713995e-10	0.45847383	-1.2047542e-16	0.22201191
7.025242731486692e-10	5.2700837e-11	5.5335875e-10	0.45847383	-1.2047542e-16	0.22201273
7.05042057900841e-10	-1.10671756e-10	7.061912e-10	0.45847383	-1.2047542e-16	0.22201219
7.075104900941185e-10	-4.2160667e-11	6.060596e-10	0.45847383	-1.2047542e-16	0.22201219
7.100282736094921e-10	3.6890584e-11	7.483519e-10	0.45847383	-1.2047542e-16	0.22201326
7.125460795101597e-10	3.6890584e-11	7.483519e-10	0.45847383	-1.2047542e-16	0.22201246
7.150144891379363e-10	1.4756234e-10	7.114613e-10	0.45847383	-1.2047542e-16	0.22201246
7.175322753601159e-10	3.4255543e-10	7.747023e-10	0.45847383	-1.2047542e-16	0.22201219
7.200006998390336e-10	1.3175208e-10	9.0645436e-10	0.45847383	-1.2047542e-16	0.22201191
7.225184909245115e-10	4.743075e-11	9.328048e-10	0.45847383	-1.2047542e-16	0.22201273
7.25036285304061e-10	6.8511086e-11	7.694322e-10	0.45847383	-1.2047542e-16	0.22201219
7.275047048829199e-10	2.7404434e-10	8.432134e-10	0.45847383	-1.2047542e-16	0.22201246
7.300224922839185e-10	-4.743075e-11	8.8537405e-10	0.45847383	-1.2047542e-16	0.22201326
7.325402873681641e-10	-8.959142e-11	1.0329364e-09	0.45847383	-1.2047542e-16	0.22201246
7.350087114321135e-10	-3.16205e-11	8.326732e-10	0.45847383	-1.204754e-16	0.22201219
7.375264937575926e-10	5.2700834e-12	8.1686297e-10	0.45847383	-1.2047542e-16	0.22201219
7.400442917639593e-10	7.378117e-11	6.5876044e-10	0.45847377	-1.2047544e-16	0.22201219
7.425127285753866e-10	3.0566485e-10	8.7483387e-10	0.45847383	-1.204754e-16	0.22201246
7.450305122426441e-10	1.8445293e-10	1.0856372e-09	0.45847383	-1.2047542e-16	0.22201191
7.475482982561571e-10	9.48615e-11	1.25955e-09	0.45847383	-1.2047542e-16	0.22201273
7.50016725017411e-10	-9.48615e-11	1.1699586e-09	0.45847383	-1.2047542e-16	0.222013
7.525345183943095e-10	-1.3175208e-10	8.959142e-10	0.45847383	-1.2047542e-16	0.22201246
7.550029429502174e-10	-4.2160667e-11	8.1159285e-10	0.45847383	-1.2047542e-16	0.22201219
7.575207198539269e-10	0	6.3768013e-10	0.45847383	-1.2047542e-16	0.22201246
7.600385254727215e-10	-4.743075e-11	7.114613e-10	0.45847383	-1.204754e-16	0.22201219
7.625069428926402e-10	1.26482e-10	6.4822026e-10	0.45847383	-1.2047542e-16	0.22201273
7.650247440354734e-10	6.3241e-11	8.4848345e-10	0.45847383	-1.2047542e-16	0.22201191
7.675425414499844e-10	-1.581025e-11	7.852424e-10	0.45847383	-1.2047542e-16	0.22201246
7.700109552368367e-10	-5.2700837e-11	7.2200146e-10	0.45847383	-1.204754e-16	0.22201273
7.725287424576387e-10	-2.3188368e-10	5.05928e-10	0.45847383	-1.2047542e-16	0.22201191
7.750465303920219e-10	-8.959142e-11	6.534904e-10	0.45847383	-1.2047542e-16	0.22201326
7.775149583766782e-10	-1.5283243e-10	7.009211e-10	0.45847383	-1.2047542e-16	0.22201273
7.800327550171452e-10	-6.8511086e-11	7.747023e-10	0.45847377	-1.2047543e-16	0.22201246
7.825011768319962e-10	1.633726e-10	9.43345e-10	0.45847377	-1.2047542e-16	0.22201219
7.85018970778248e-10	-4.743075e-11	9.328048e-10	0.45847377	-1.2047542e-16	0.22201219
7.875367594630893e-10	-4.2160667e-11	8.063228e-10	0.45847383	-1.204754e-16	0.22201246
7.900051742942531e-10	-1.4756234e-10	8.155454e-10	0.45847383	-1.2047542e-16	0.222013
7.925229665590627e-10	-1.2121192e-10	9.117245e-10	0.45847383	-1.2047542e-16	0.22201191
7.950407672893597e-10	-5.2700837e-11	7.483519e-10	0.45847383	-1.2047542e-16	0.22201273
7.975091856498791e-10	1.2121192e-10	8.010527e-10	0.45847383	-1.2047542e-16	0.222013
8.000269743879185e-10	-2.1080334e-11	6.113297e-10	0.45847383	-1.204754e-16	0.22201219
8.025447675862297e-10	4.2160667e-11	8.2213303e-10	0.45847383	-1.2047542e-16	0.22201273
8.050131882226044e-10	5.2700837e-11	7.9051254e-10	0.45847383	-1.2047542e-16	0.22201219
8.075309726684724e-10	-1.7391276e-10	6.745707e-10	0.45847383	-1.2047542e-16	0.22201219
8.100487596594215e-10	-2.1607342e-10	6.693006e-10	0.45847383	-1.2047542e-16	0.22201219
8.1251718919117e-10	4.743075e-11	5.428186e-10	0.45847383	-1.2047542e-16	0.22201191
8.150349689258409e-10	3.6890584e-11	7.9051254e-10	0.45847383	-1.2047542e-16	0.22201273
8.175033967029558e-10	-1.4229226e-10	7.641621e-10	0.45847383	-1.2047542e-16	0.222013
8.200212001923892e-10	-1.3175208e-10	7.58892e-10	0.45847383	-1.2047542e-16	0.22201191
8.225389919595492e-10	-6.8511086e-11	5.7970917e-10	0.45847383	-1.2047542e-16	0.22201273
8.250074157452635e-10	3.16205e-11	6.8511086e-10	0.45847377	-1.204754e-16	0.22201219
8.275252042082932e-10	2.2134351e-10	7.483519e-10	0.45847383	-1.2047542e-16	0.22201219
8.300429999056904e-10	9.48615e-11	9.011843e-10	0.45847383	-1.204754e-16	0.22201246
8.325114179984728e-10	1.0013159e-10	7.957826e-10	0.45847383	-1.2047542e-16	0.22201246
8.35029214802397e-10	1.581025e-11	9.011843e-10	0.45847377	-1.2047542e-16	0.22201246
8.375470005642755e-10	-2.0553326e-10	8.537535e-10	0.45847383	-1.2047542e-16	0.22201191
8.400154278898163e-10	-3.5836567e-10	8.1949797e-10	0.45847383	-1.2047542e-16	0.22201191
8.425332112455381e-10	-4.479571e-10	8.1159285e-10	0.45847383	-1.2047542e-16	0.22201326
8.450016332146528e-10	-2.0026318e-10	7.694322e-10	0.45847383	-1.2047542e-16	0.222013
8.475194209700749e-10	-4.2160667e-11	7.694322e-10	0.45847383	-1.2047542e-16	0.22201219
8.500372123036827e-10	-8.959142e-11	8.063228e-10	0.45847383	-1.2047542e-16	0.22201246
8.525056265977374e-10	-2.7931443e-10	7.7997236e-10	0.45847383	-1.2047542e-16	0.22201191
8.550234225777463e-10	-1.05401674e-10	7.58892e-10	0.45847383	-1.2047542e-16	0.22201219
8.575412150319455e-10	-1.10671756e-10	6.429502e-10	0.45847377	-1.2047542e-16	0.22201191
8.600096391249317e-10	1.3175208e-10	7.5362194e-10	0.45847383	-1.2047542e-16	0.22201219
8.625274399023051e-10	7.378117e-11	8.8010393e-10	0.45847383	-1.2047542e-16	0.22201273
8.650452266336547e-10	-1.2121192e-10	8.2213303e-10	0.45847383	-1.2047542e-16	0.22201191