# t (s)	mx ()	my ()	mz ()	E_total (J)	MaxAngle (rad)
0	1.2551379e-09	5.7612887e-10	0.97953606	-2.0725775e-17	0.2662729
2.5190592970789053e-12	9.464974e-10	1.0205711e-09	0.9734021	-2.0700797e-17	0.24629864
5.0457673559828196e-12	1.2510226e-09	1.3333268e-09	0.96803546	-2.065193e-17	0.236484
7.51960720456823e-12	8.230412e-10	2.39505e-09	0.9641433	-2.0585065e-17	0.23236191
1.0042053449709798e-11	-4.609031e-10	3.2263217e-09	0.9621769	-2.0502651e-17	0.22994965
1.2514006471587663e-11	-1.9423774e-09	3.4896948e-09	0.9624673	-2.0412877e-17	0.22985497
1.503461563956424e-11	-3.6872247e-09	2.6995752e-09	0.96491325	-2.031384e-17	0.22975658
1.75052714350679e-11	-4.8065605e-09	1.1851794e-09	0.96902794	-2.0206636e-17	0.2296804
2.0024941723493272e-11	-6.288035e-09	-1.8436124e-09	0.9741293	-2.0078736e-17	0.2314589
2.2544333117692176e-11	-5.6625233e-09	-6.3209566e-09	0.97818047	-1.9917866e-17	0.23417564
2.5014154737706915e-11	-2.047315e-09	-1.0666614e-08	0.9764672	-1.9733024e-17	0.2190325
2.753321726685288e-11	4.1481276e-09	-1.158842e-08	0.9609378	-1.9641402e-17	0.20680101
3.0002755784042446e-11	9.481435e-09	-9.613121e-09	0.93048835	-1.9747913e-17	0.21954843
3.2521545288973506e-11	1.2707757e-08	-6.2551133e-09	0.89394295	-1.9917804e-17	0.23221096
3.5040291558373405e-11	1.2559609e-08	8.888845e-10	0.86426955	-2.0043367e-17	0.2311037
3.750961471627625e-11	1.1160439e-08	6.4526433e-09	0.84336793	-2.0125064e-17	0.21266335
4.002799963653315e-11	1.0551388e-08	9.654274e-09	0.8282145	-2.0171744e-17	0.20840625
4.254599768680319e-11	9.769499e-09	1.12098215e-08	0.8181737	-2.0189712e-17	0.2105049
4.501475474481249e-11	7.1357675e-09	1.2148089e-08	0.8124826	-2.0191355e-17	0.21302171
4.753295902226531e-11	3.9670587e-09	1.2115167e-08	0.81004435	-2.0186393e-17	0.21510056
5.000177824400914e-11	1.0041102e-09	1.0633692e-08	0.8101828	-2.0180672e-17	0.21588774
5.251994625974495e-11	-2.9629485e-10	8.806541e-09	0.8122997	-2.0176533e-17	0.21610105
5.503807591518791e-11	-1.0205711e-09	7.637823e-09	0.81578946	-2.017475e-17	0.21584155
5.7506826621894224e-11	-6.255113e-10	6.3261005e-09	0.8200433	-2.0175041e-17	0.2176746
6.002498023020198e-11	-2.1399071e-10	5.563759e-09	0.8249138	-2.0176877e-17	0.21821958
6.254312825917525e-11	3.292165e-10	4.5431876e-09	0.83007157	-2.017965e-17	0.21939786
6.501191123445955e-11	7.2427625e-10	4.213971e-09	0.83516026	-2.0182757e-17	0.2205811
6.753004546731247e-11	5.5966803e-10	3.7695287e-09	0.8401691	-2.0185864e-17	0.22097467
7.004818955218598e-11	1.8436124e-09	3.2921648e-09	0.8448676	-2.0188542e-17	0.22257048
7.251695460170658e-11	2.5020452e-09	3.2263217e-09	0.84913003	-2.0190514e-17	0.22230677
7.503507911925722e-11	2.8641833e-09	3.9505976e-09	0.85313016	-2.0191676e-17	0.22372432
7.750381877840279e-11	2.4855844e-09	5.333307e-09	0.8567326	-2.019186e-17	0.22432666
8.002195380018154e-11	2.3703588e-09	5.2016205e-09	0.8601126	-2.0191022e-17	0.22382773
8.254007164388864e-11	2.2715938e-09	5.267464e-09	0.86323565	-2.0189135e-17	0.22509329
8.500880267196279e-11	2.7983402e-09	5.8600533e-09	0.8660944	-2.018628e-17	0.22551218
8.752691014704001e-11	2.0740638e-09	6.5184866e-09	0.8688529	-2.0182347e-17	0.22518462
9.004500954623851e-11	1.5637783e-09	7.506136e-09	0.87149876	-2.0177365e-17	0.22406231
9.251373658789905e-11	5.5966803e-10	7.7695095e-09	0.8740227	-2.0171458e-17	0.22223918
9.503184832682157e-11	0	6.847703e-09	0.87656087	-2.0164317e-17	0.22045085
9.750056691900056e-11	-3.950598e-10	6.913546e-09	0.8790469	-2.0156125e-17	0.21991895
1.0001867362381999e-10	-3.6213813e-10	7.901195e-09	0.8816137	-2.0146409e-17	0.21857995
1.025367655027919e-10	-8.230412e-10	8.7571586e-09	0.8842471	-2.01351e-17	0.21685807
1.0500548452618563e-10	-1.2510226e-09	9.283905e-09	0.8869307	-2.0122194e-17	0.21680792
1.0752358300004694e-10	-2.3703588e-09	9.448513e-09	0.8898129	-2.010678e-17	0.2157249
1.1004168188178596e-10	-3.851833e-09	9.1522185e-09	0.8928887	-2.008858e-17	0.21462531
1.125103944127739e-10	-6.090505e-09	8.559629e-09	0.8961458	-2.006734e-17	0.21466617
1.1502850925408785e-10	-8.263334e-09	8.164569e-09	0.8997791	-2.0041286e-17	0.21297716
1.1754662277041974e-10	-8.691315e-09	7.4402924e-09	0.9038033	-2.0009512e-17	0.21385603
1.2001536606901738e-10	-1.0403241e-08	7.506136e-09	0.9082139	-1.997114e-17	0.21273647
1.2253349612730373e-10	-1.3530798e-08	7.1769195e-09	0.91328293	-1.9922303e-17	0.2135598
1.250022373567986e-10	-1.7810612e-08	4.609031e-09	0.91889703	-1.9861817e-17	0.21404131
1.275203708489926e-10	-2.1300307e-08	5.925897e-10	0.9253259	-1.978291e-17	0.21427661
1.3003852144251176e-10	-2.4822922e-08	-6.4526433e-09	0.93238443	-1.9680356e-17	0.21457747
1.325072987115185e-10	-2.7522498e-08	-1.4748899e-08	0.9395519	-1.9547815e-17	0.21443604
1.3502547048854854e-10	-2.7917558e-08	-2.6501928e-08	0.9460968	-1.9366095e-17	0.21290551
1.3754364985476887e-10	-2.3934039e-08	-4.2666457e-08	0.9494496	-1.9122257e-17	0.20899831
1.400124760711311e-10	-1.2238623e-08	-5.8600534e-08	0.9448302	-1.8842367e-17	0.20655994
1.425306762547369e-10	1.0765379e-08	-6.7423535e-08	0.92527515	-1.8650995e-17	0.21394812
1.4504889059351201e-10	4.0888686e-08	-5.9390654e-08	0.89043117	-1.8731773e-17	0.24127328
1.4751770814888945e-10	6.2221915e-08	-4.6221995e-08	0.8543405	-1.9055828e-17	0.2348943
1.500359341468204e-10	7.348112e-08	-2.2584251e-08	0.82237107	-1.9409939e-17	0.20711863
1.5250500884484933e-10	7.045233e-08	7.7695095e-09	0.79503566	-1.965419e-17	0.20114216
1.5502357683590747e-10	5.5472977e-08	3.3843456e-08	0.77171886	-1.980521e-17	0.20391516
1.5754150240859717e-10	3.382082e-08	4.7407173e-08	0.75356054	-1.9890086e-17	0.20878273
1.6001010134640116e-10	1.3827092e-08	4.8197293e-08	0.74082893	-1.9933334e-17	0.21154952
1.6252821633601344e-10	-2.4691235e-10	4.0296097e-08	0.7325214	-1.9953716e-17	0.21152794
1.6504634072737946e-10	-8.016421e-09	2.9892856e-08	0.7283866	-1.9961852e-17	0.21219745
1.6751505011545126e-10	-1.0913526e-08	2.1399071e-08	0.7278233	-1.9965147e-17	0.21200465
1.7003315625711996e-10	-1.12921255e-08	1.4090466e-08	0.7300184	-1.996801e-17	0.2117053
1.7250188297788086e-10	-1.0798301e-08	9.876494e-09	0.7343063	-1.9972557e-17	0.21101575
1.7502002883898784e-10	-1.0205711e-08	6.18927e-09	0.74050474	-1.9980073e-17	0.21235277
1.775382004854098e-10	-8.098725e-09	3.0287917e-09	0.74819684	-1.999084e-17	0.21155037
1.8000700121247005e-10	-7.111076e-09	1.5802392e-09	0.75679857	-2.0004443e-17	0.21300648
1.825251603399327e-10	-5.6460627e-09	1.975299e-10	0.76628935	-2.0020989e-17	0.21315417
1.850433401836701e-10	-3.7201462e-09	6.5843296e-11	0.77621365	-2.00396e-17	0.21301493
1.8751213266273072e-10	-2.633732e-09	-5.2674637e-10	0.78613013	-2.0059115e-17	0.21464294
1.9003030968038765e-10	-5.2674637e-10	1.2757138e-10	0.7962051	-2.0079475e-17	0.21584071
1.9254845303895545e-10	7.901196e-10	7.0987305e-10	0.80600196	-2.0099422e-17	0.21669263
1.9501723074229046e-10	1.316866e-09	1.777769e-09	0.8151168	-2.0117782e-17	0.21707708
1.9753536413663401e-10	1.9752988e-09	2.5020452e-09	0.82372785	-2.0134628e-17	0.21944304
2.000041258593223e-10	2.4032802e-09	4.115206e-09	0.831373	-2.014885e-17	0.22078723
2.0252226084381653e-10	1.9752988e-09	4.411501e-09	0.83830136	-2.016079e-17	0.22099616
2.0504036472817767e-10	1.6460824e-09	4.757178e-09	0.8443635	-2.0170124e-17	0.22298647
2.0750910099268447e-10	2.4691236e-09	5.5966805e-09	0.84953284	-2.0176867e-17	0.22261368
2.1002719685938514e-10	3.3250864e-09	6.0575833e-09	0.8541206	-2.0181468e-17	0.22422616
2.1254530049111177e-10	2.5020452e-09	7.045233e-09	0.85813713	-2.0183976e-17	0.22439525
2.15014014951663e-10	1.6460824e-09	7.3744495e-09	0.86163497	-2.0184598e-17	0.22455806
2.175320961191376e-10	5.1028554e-10	7.1769195e-09	0.864859	-2.0183563e-17	0.2254402
2.2000079302252762e-10	-2.3045155e-10	6.7818595e-09	0.8677689	-2.0181084e-17	0.2254434
2.225188847229547e-10	-7.571979e-10	6.0575833e-09	0.8705546	-2.0177188e-17	0.22458187
2.2503696293058043e-10	-9.876495e-11	6.3868e-09	0.8732167	-2.0171995e-17	0.2229207
2.2750568462862125e-10	-4.938247e-10	7.045233e-09	0.8757562	-2.0165664e-17	0.2205713
2.3002376860869993e-10	-1.1522577e-09	7.703666e-09	0.8783183	-2.0157908e-17	0.22014399
2.3254185620260077e-10	-2.0411421e-09	7.7695095e-09	0.8808924	-2.0148748e-17	0.21902974
2.350105949388275e-10	-3.0287917e-09	7.637823e-09	0.88346505	-2.0138227e-17	0.21709673
2.3752868560388046e-10	-3.7201462e-09	6.3868e-09	0.886178	-2.0125695e-17	0.21690793
2.4004678058608765e-10	-4.0822843e-09	5.7283667e-09	0.8890224	-2.0110982e-17	0.21612273
2.425155101184542e-10	-4.9053255e-09	6.2551133e-09	0.8919839	-2.0093989e-17	0.21436405
2.4503361496742765e-10	-6.3868e-09	7.1769195e-09	0.895234	-2.0073392e-17	0.21480016
2.4750235053494695e-10	-8.493785e-09	7.111076e-09	0.89870566	-2.004917e-17	0.21366946
2.5002046817574043e-10	-1.0139868e-08	5.267464e-09	0.9026109	-2.0019192e-17	0.21382204
2.5253857157512324e-10	-1.2411461e-08	3.9505976e-09	0.90696955	-1.9982305e-17	0.21292189
2.5500733377153536e-10	-1.4255074e-08	2.3703588e-09	0.9117752	-1.9937339e-17	0.21374646
2.5752547156691337e-10	-1.659251e-08	-1.2510226e-09	0.9173122	-1.9879592e-17	0.21360649
2.600436143381346e-10	-1.8831184e-08	-5.8600533e-09	0.92355376	-1.98058e-17	0.21338987
2.625123951646634e-10	-1.995052e-08	-1.1851793e-08	0.9303249	-1.9712397e-17	0.21349595
2.650305504290023e-10	-1.955546e-08	-2.0148049e-08	0.9376299	-1.9587415e-17	0.213883
2.675487319860198e-10	-1.6691276e-08	-3.0287918e-08	0.9445379	-1.9419767e-17	0.2132153
2.7001752928725566e-10	-1.0074024e-08	-4.1612964e-08	0.9490515	-1.9198222e-17	0.20987098
2.725357335003789e-10	3.0205614e-09	-5.372813e-08	0.9472319	-1.8917032e-17	0.20640731
2.7500456178239284e-10	2.3703587e-08	-5.846885e-08	0.93264836	-1.868345e-17	0.21050805
2.7752278133160483e-10	4.9349552e-08	-4.727549e-08	0.9012655	-1.8676756e-17	0.23210318
2.800409905648852e-10	6.7160165e-08	-2.6600691e-08	0.86361235	-1.8956174e-17	0.24630281
2.825098230389984e-10	7.453461e-08	-6.2551133e-09	0.83103824	-1.9318024e-17	0.21274467
2.85028217440181e-10	6.617251e-08	2.0872326e-08	0.8020148	-1.9598901e-17	0.20080356
2.875468111199724e-10	4.5826933e-08	4.3390735e-08	0.7774069	-1.9772896e-17	0.20261718
2.9001554126735866e-10	2.2720053e-08	5.2180813e-08	0.7581872	-1.9871029e-17	0.20729074
2.925334710428331e-10	2.5514277e-09	4.9053256e-08	0.74379206	-1.9924498e-17	0.21078797
2.9500219309492604e-10	-9.99172e-09	3.9242604e-08	0.73443943	-1.9949581e-17	0.21131463
2.9752029874665507e-10	-1.5539019e-08	2.7390811e-08	0.72916394	-1.9960272e-17	0.21218528
3.0003838533574064e-10	-1.6872345e-08	1.6345599e-08	0.7276768	-1.9964431e-17	0.21206383
3.025070859452071e-10	-1.539087e-08	8.823002e-09	0.7291485	-1.9967078e-17	0.21182185
3.0502520665390723e-10	-1.3004051e-08	3.0287917e-09	0.7329585	-1.9971078e-17	0.21112129
3.075433451725867e-10	-1.0633692e-08	1.1193361e-09	0.7386997	-1.9977767e-17	0.21214396
3.1001214157824046e-10	-8.526707e-09	-6.58433e-10	0.74587774	-1.9987438e-17	0.2120794
3.125302951930549e-10	-5.7283667e-09	-1.316866e-09	0.75439036	-2.0000483e-17	0.21286573
3.1504844666835103e-10	-3.5884598e-09	-1.9752988e-09	0.7637203	-2.0016371e-17	0.2123703
3.175172458469766e-10	-1.4485525e-09	-1.777769e-09	0.77335846	-2.0034132e-17	0.21358708
3.2003539701098487e-10	-9.218062e-10	-8.888845e-10	0.78344303	-2.0053758e-17	0.21462867
3.225041830982043e-10	4.609031e-10	-7.901196e-10	0.79335463	-2.0073683e-17	0.21523845
3.2502233205480853e-10	1.679004e-09	7.304491e-10	0.80325484	-2.0093833e-17	0.21553937
3.2754048699764777e-10	2.1728288e-09	2.0925823e-09	0.81271136	-2.0112974e-17	0.2175117
3.3000925007594485e-10	2.0740638e-09	3.555538e-09	0.82135576	-2.0130056e-17	0.21926443
3.3252737579539664e-10	2.0905246e-09	3.0452525e-09	0.82938814	-2.0145244e-17	0.22002876
3.3504549950472463e-10	1.3827093e-09	3.835372e-09	0.83655083	-2.0157879e-17	0.22131462
3.3751424625095976e-10	2.1399071e-09	3.5061556e-09	0.8427226	-2.0167724e-17	0.22260477
3.4003233112146015e-10	2.6666536e-09	4.3456576e-09	0.8482054	-2.017527e-17	0.2229436
3.4250105955873753e-10	2.4691236e-09	5.9258967e-09	0.8528781	-2.0180381e-17	0.22386828
3.450191458800052e-10	1.5143958e-09	5.79421e-09	0.8570447	-2.0183463e-17	0.22450557
3.4753721895716275e-10	8.230412e-10	6.3209566e-09	0.8607261	-2.0184602e-17	0.22415885
3.500059352686608e-10	4.2798143e-10	5.3003855e-09	0.863971	-2.018402e-17	0.2253039
3.525240218423659e-10	3.292165e-10	4.938247e-09	0.86700237	-2.018189e-17	0.22552712
3.5504208157288503e-10	6.9135464e-10	5.7283667e-09	0.8698304	-2.0178348e-17	0.22489159
3.5751078620752407e-10	3.950598e-10	6.8806245e-09	0.87246823	-2.0173605e-17	0.22347191
3.600288621067183e-10	-1.2839443e-09	6.716016e-09	0.8750739	-2.0167499e-17	0.22127633
3.6254693007406247e-10	-2.633732e-09	6.3868e-09	0.8776395	-2.0160099e-17	0.22030388
3.650156422507761e-10	-2.6995752e-09	5.530837e-09	0.8801561	-2.015151e-17	0.2194318
3.675337345919699e-10	-2.897105e-09	5.79421e-09	0.8827625	-2.0141234e-17	0.21770634
3.7000243641901547e-10	-3.555538e-09	6.1234267e-09	0.8853941	-2.0129467e-17	0.21694227
3.725205356680998e-10	-4.8065605e-09	6.5184866e-09	0.8881965	-2.0115416e-17	0.21645851
3.7503864017682275e-10	-6.0246617e-09	5.530837e-09	0.89116335	-2.0098864e-17	0.21483399
3.7750736065766964e-10	-6.3538783e-09	5.037012e-09	0.8942816	-2.0079639e-17	0.21481776
3.800254674499877e-10	-7.4402924e-09	3.654303e-09	0.89773524	-2.005617e-17	0.21415521
3.825435732065899e-10	-8.164569e-09	2.7654186e-09	0.90153515	-2.0027738e-17	0.21361126
3.850123110518751e-10	-9.020532e-09	2.7489577e-09	0.9056769	-1.9993625e-17	0.21348894
3.8753043763074555e-10	-1.0995831e-08	1.1851794e-09	0.9104183	-1.9950503e-17	0.21359749
3.900485670845478e-10	-1.3794171e-08	-9.876494e-10	0.9157772	-1.9896275e-17	0.21277627
3.9251731187461974e-10	-1.5407332e-08	-5.135777e-09	0.9217038	-1.982874e-17	0.21368577
3.950354680027097e-10	-1.6493747e-08	-1.0880605e-08	0.92843866	-1.9740108e-17	0.21428053
3.975042389148206e-10	-1.6263295e-08	-1.7119257e-08	0.93554074	-1.9626691e-17	0.21427521
4.0002241497748077e-10	-1.4090466e-08	-2.6469005e-08	0.94269407	-1.9472801e-17	0.21299182
4.0254059173526976e-10	-6.2221917e-09	-3.7003932e-08	0.94822717	-1.9264413e-17	0.21055767
4.0500941762777016e-10	5.7283667e-09	-4.6617053e-08	0.94877267	-1.899977e-17	0.20690984
4.075276316984651e-10	2.348548e-08	-5.0435965e-08	0.93820715	-1.8731745e-17	0.20781139
4.100458351908763e-10	4.451007e-08	-4.0427786e-08	0.91090053	-1.8648258e-17	0.22351575
4.1251466633797483e-10	5.8600534e-08	-2.1596602e-08	0.87402254	-1.8855752e-17	0.24740756
4.150328597762432e-10	6.5184864e-08	-3.555538e-09	0.8394085	-1.9224789e-17	0.2195227
4.175018069200429e-10	5.892975e-08	1.9489615e-08	0.80986166	-1.9530902e-17	0.20261925
4.20020384736191e-10	4.1415433e-08	3.8633555e-08	0.7839207	-1.9732394e-17	0.20181054
4.225386669273787e-10	2.0489612e-08	4.7670547e-08	0.7628864	-1.9849886e-17	0.2056956
4.250071801337788e-10	2.613156e-09	4.5431875e-08	0.7473643	-1.9912838e-17	0.2091683
4.275252333735021e-10	-9.341518e-09	3.7069775e-08	0.7365408	-1.9944665e-17	0.21167919
4.3004334094788393e-10	-1.4501986e-08	2.4888767e-08	0.7301683	-1.9958358e-17	0.21208109
4.3251203287395506e-10	-1.4633673e-08	1.5407332e-08	0.7277566	-1.9963567e-17	0.21212924
4.3503009313854605e-10	-1.3119277e-08	9.613121e-09	0.7285074	-1.996632e-17	0.2118998
4.3754818222547077e-10	-1.12098215e-08	5.3991505e-09	0.73174685	-1.9969793e-17	0.21140213
4.4001692245661964e-10	-9.119296e-09	3.4896948e-09	0.7368866	-1.9975543e-17	0.21178442
4.425350758106048e-10	-7.835352e-09	1.9752988e-09	0.7438055	-1.9984513e-17	0.21234174
4.450038690499373e-10	-6.674864e-09	1.1193361e-09	0.75186694	-1.9996456e-17	0.21242431
4.4752201781135126e-10	-5.2510027e-09	-1.3168659e-10	0.7609997	-2.0011588e-17	0.21257523
4.500401812828412e-10	-3.851833e-09	-4.2798143e-10	0.77071774	-2.0029153e-17	0.2137296
4.5250894919281767e-10	-2.8641833e-09	-3.950598e-10	0.7805582	-2.0048062e-17	0.2141681
4.550270993982081e-10	-1.679004e-09	-6.5843296e-11	0.7906839	-2.0068277e-17	0.21425307
4.5754524404025635e-10	-6.5843296e-11	6.5843296e-11	0.80066323	-2.0088556e-17	0.21580787
4.6001401235644604e-10	1.1851794e-09	4.2386622e-10	0.810076	-2.0107672e-17	0.2175396
4.625321344054981e-10	1.9999902e-09	1.958838e-09	0.8190876	-2.0125632e-17	0.21871789
4.6500088294176806e-10	2.1399071e-09	2.6995752e-09	0.8271869	-2.014117e-17	0.21896417
4.675189886943486e-10	3.654303e-09	3.0287917e-09	0.8346009	-2.015455e-17	0.22137055
4.700371035545381e-10	3.8806394e-09	4.016441e-09	0.84113395	-2.0165307e-17	0.22201543
4.725058187037511e-10	4.115206e-09	5.9258967e-09	0.8467222	-2.0173372e-17	0.22312012
4.75023906821634e-10	2.5020452e-09	8.098725e-09	0.8516762	-2.0179212e-17	0.22343694
4.775420044937436e-10	-7.2427625e-10	8.098725e-09	0.8559918	-2.0182841e-17	0.22450075
4.800106930615824e-10	-2.0082205e-09	6.650173e-09	0.85972023	-2.0184463e-17	0.2240218
4.825287700115186e-10	-8.888845e-10	5.5966805e-09	0.86312324	-2.0184332e-17	0.22509784
4.850468297637863e-10	8.5596286e-10	5.5966805e-09	0.866221	-2.0182598e-17	0.22554709
4.875155177692811e-10	1.5967e-09	5.3003855e-09	0.86904156	-2.0179493e-17	0.22515899
4.900335906090191e-10	8.724237e-10	7.0781545e-09	0.8717647	-2.0175008e-17	0.22392921
4.925022898313053e-10	-1.7119257e-09	8.098725e-09	0.8743375	-2.0169367e-17	0.22197725
4.950203542416926e-10	-3.1604783e-09	7.4402924e-09	0.8769103	-2.0162342e-17	0.22041349
4.975384274090622e-10	-3.555538e-09	6.3209566e-09	0.879473	-2.0153973e-17	0.21974456
5.000071375971237e-10	-4.2468926e-09	5.9258967e-09	0.8820137	-2.014433e-17	0.21828784
5.025252066934138e-10	-3.654303e-09	5.6625233e-09	0.88467246	-2.0132833e-17	0.21690488
5.050432851383516e-10	-3.8847547e-09	5.267464e-09	0.88743913	-2.0119365e-17	0.21668985
5.075119970570281e-10	-4.3456576e-09	5.79421e-09	0.8902986	-2.0103869e-17	0.21542619
5.100300877697395e-10	-5.629602e-09	5.530837e-09	0.8934143	-2.0085174e-17	0.21472912
5.125481748081136e-10	-6.716016e-09	4.938247e-09	0.8967883	-2.0062832e-17	0.2145027
5.150168942568935e-10	-8.032882e-09	4.7407176e-09	0.9004126	-2.0036422e-17	0.2132153
5.175349986317751e-10	-8.559629e-09	3.9505976e-09	0.9045105	-2.0003566e-17	0.21378131
5.20003737353311e-10	-1.0337398e-08	2.8312617e-09	0.9090086	-1.9963784e-17	0.21313332
5.225218567193197e-10	-1.2115167e-08	2.6337318e-10	0.91418225	-1.991305e-17	0.21326827
5.250399667580707e-10	-1.4913507e-08	-2.5678886e-09	0.92003196	-1.9848667e-17	0.21407385
5.275087423174634e-10	-1.6032843e-08	-7.094615e-09	0.9264544	-1.9767769e-17	0.21451306
5.300268862849436e-10	-1.7218023e-08	-1.3168659e-08	0.9335924	-1.9660505e-17	0.21474701
5.325450352367201e-10	-1.4485526e-08	-2.1728289e-08	0.9408671	-1.9518222e-17	0.2142225
5.350138356695916e-10	-9.316826e-09	-3.1078038e-08	0.946967	-1.9330303e-17	0.21225601
5.375320352684414e-10	5.5966803e-10	-4.1217906e-08	0.94939417	-1.907604e-17	0.20829561
5.400008497800044e-10	1.5687165e-08	-4.71438e-08	0.94279057	-1.8798551e-17	0.20593853
5.425190695847783e-10	3.516855e-08	-4.292983e-08	0.9203484	-1.864269e-17	0.21789142
5.450372773163759e-10	5.1423616e-08	-2.6337318e-08	0.8840747	-1.8774278e-17	0.24452959
5.475060857081126e-10	6.031246e-08	-1.1654263e-08	0.8487423	-1.9118707e-17	0.2290234
5.500243411732495e-10	5.8666377e-08	7.39091e-09	0.8174784	-1.945901e-17	0.2052305
5.525428640099425e-10	4.5859856e-08	2.7917558e-08	0.7903512	-1.9688576e-17	0.20086512
5.550119314966593e-10	2.8625374e-08	4.194218e-08	0.76835066	-1.9823013e-17	0.20503736
5.575298018984839e-10	9.497896e-09	4.556356e-08	0.75106585	-1.9899621e-17	0.20910716
5.600478158847924e-10	-5.18516e-09	3.897923e-08	0.7389544	-1.9938492e-17	0.21174927
5.625165465353982e-10	-1.2707757e-08	2.7917558e-08	0.7315598	-1.9955656e-17	0.21180144
5.650345994300718e-10	-1.5654244e-08	1.7234482e-08	0.72806793	-1.9962581e-17	0.21217963
5.675032783553745e-10	-1.5160419e-08	9.876494e-09	0.7280116	-1.996557e-17	0.21196781
5.700213405446425e-10	-1.22797745e-08	4.7407176e-09	0.73060244	-1.9968607e-17	0.2116145
5.725394439185711e-10	-9.39913e-09	1.9464925e-09	0.7353212	-1.9973707e-17	0.21135412
5.750081903680305e-10	-6.913546e-09	1.2674835e-09	0.74168193	-1.9981621e-17	0.21240509
5.775263390109076e-10	-5.4485327e-09	6.5843296e-11	0.7495823	-1.9992927e-17	0.21177621
5.800444804373078e-10	-4.7736393e-09	-6.58433e-10	0.7585067	-2.0007309e-17	0.21293654
5.825132477567866e-10	-3.275704e-09	-1.7119257e-09	0.7679048	-2.0023938e-17	0.2134788
5.850313932655803e-10	-1.8518427e-09	-1.5802392e-09	0.7778768	-2.004282e-17	0.21334061
5.875001428656409e-10	-8.5596286e-10	-1.6296217e-09	0.7878025	-2.0062467e-17	0.21444613
5.900182855217034e-10	1.1892946e-09	-1.0288015e-09	0.79784805	-2.008282e-17	0.21596925
5.925364232240064e-10	2.0411421e-09	-1.7901146e-10	0.80757636	-2.0102615e-17	0.21714488
5.950051701505913e-10	3.2592433e-09	7.571979e-10	0.8165904	-2.012071e-17	0.21771075
5.97523295626781e-10	3.1604783e-09	2.5020452e-09	0.8250729	-2.0137193e-17	0.21936335
6.000413895040199e-10	3.2592433e-09	3.7695287e-09	0.83271927	-2.0151255e-17	0.2211299
6.025101020531788e-10	2.9300267e-09	3.456773e-09	0.8393605	-2.0162508e-17	0.2211432
6.050281845292906e-10	3.358008e-09	5.530837e-09	0.84528494	-2.0171423e-17	0.22309911
6.075462710022268e-10	9.218062e-10	6.1234267e-09	0.85042864	-2.0177883e-17	0.22285059
6.100149542594699e-10	-1.0864144e-09	2.9300267e-09	0.85481954	-2.0182022e-17	0.22436872
6.125330188184876e-10	3.2921648e-11	1.7448474e-09	0.8587534	-2.0184201e-17	0.2242795
6.150017107334137e-10	1.876534e-09	3.555538e-09	0.86218834	-2.018454e-17	0.22478464
6.175197607570366e-10	1.9752988e-09	6.3209566e-09	0.86536396	-2.0183245e-17	0.22549193
6.20037810404412e-10	1.0534927e-09	8.098725e-09	0.8682951	-2.0180462e-17	0.22534873
6.22506502564964e-10	-1.6131608e-09	9.218062e-09	0.8710008	-2.0176417e-17	0.22435988
6.250245419202646e-10	-5.333307e-09	6.551408e-09	0.8736477	-2.0171014e-17	0.2225767
6.275426062089283e-10	-5.8271317e-09	2.5020452e-09	0.8762299	-2.0164334e-17	0.22045821
6.300112817455747e-10	-2.7654186e-09	9.876494e-10	0.8787411	-2.01565e-17	0.22001785
6.325293484361427e-10	-2.6337318e-10	2.5020452e-09	0.8813208	-2.014709e-17	0.21876487
6.350474069243788e-10	-3.292165e-10	5.9258967e-09	0.8839577	-2.0136063e-17	0.21680404
6.37516094998081e-10	-2.8312617e-09	7.835352e-09	0.88663673	-2.0123427e-17	0.21685253
6.400341632653586e-10	-5.3991505e-09	7.111076e-09	0.8895072	-2.0108319e-17	0.21588357
6.42502869262652e-10	-6.748938e-09	5.366229e-09	0.89250237	-2.0090839e-17	0.21452789
6.450209508465159e-10	-6.5843295e-09	3.2263217e-09	0.89579624	-2.0069625e-17	0.21473025
6.475390224978028e-10	-6.5843295e-09	2.4691236e-09	0.89939606	-2.0044082e-17	0.21324264
6.500077417494533e-10	-6.1234267e-09	2.3045155e-09	0.9032958	-2.0013638e-17	0.21386811
6.52525831633133e-10	-7.539057e-09	2.0411421e-09	0.9077381	-1.997542e-17	0.21246332
6.550439521696556e-10	-9.218062e-09	5.2674637e-10	0.9127456	-1.9927696e-17	0.21367003
6.575126858115529e-10	-9.744808e-09	-2.2386721e-09	0.9182916	-1.9868663e-17	0.21392706
6.600308058224079e-10	-1.0469084e-08	-4.971169e-09	0.9246501	-1.9791735e-17	0.21400876
6.625489363240774e-10	-1.08970655e-08	-9.876494e-09	0.9316557	-1.9691908e-17	0.21430352
6.650177138671098e-10	-9.876494e-09	-1.6131608e-08	0.93882906	-1.9563142e-17	0.21434641
6.675358787574271e-10	-5.069934e-09	-2.317684e-08	0.9455285	-1.9386887e-17	0.2131398
6.700046685448822e-10	2.5678886e-09	-2.8707678e-08	0.9493514	-1.91548e-17	0.20942591
6.725228578756013e-10	1.3730385e-08	-3.2921648e-08	0.94585717	-1.8870083e-17	0.20663403
6.750410533470416e-10	2.6995751e-08	-2.9497798e-08	0.9280332	-1.8659884e-17	0.2134062
6.775098823502739e-10	4.0296097e-08	-1.7514317e-08	0.89502454	-1.870565e-17	0.23623201
6.800280703106196e-10	4.5036817e-08	-4.4773443e-09	0.8577995	-1.901779e-17	0.24000077
6.825462975958009e-10	4.451007e-08	8.691315e-09	0.82538503	-1.9378622e-17	0.2083665
6.850153616597843e-10	3.476526e-08	2.2740629e-08	0.79763633	-1.9634144e-17	0.20092694
6.875339252414285e-10	2.116862e-08	3.272412e-08	0.77382624	-1.9793557e-17	0.20295161
6.900024669336313e-10	6.6789796e-09	3.4633576e-08	0.75545555	-1.9882485e-17	0.20830944
6.925204005254654e-10	-4.5267265e-09	2.9613023e-08	0.7419091	-1.9930199e-17	0.21133311
6.950384768625777e-10	-1.0880605e-08	2.1596602e-08	0.7331569	-1.9952377e-17	0.2113098
6.975071630277365e-10	-1.2263314e-08	1.2905287e-08	0.7286762	-1.9961238e-17	0.2122017
7.000252062138146e-10	-1.0485545e-08	6.6419426e-09	0.727743	-1.996488e-17	0.21202785
7.025432418079716e-10	-7.308606e-09	2.9876397e-09	0.72969	-1.9967662e-17	0.21175152
7.050119485978659e-10	-5.0040905e-09	2.3703588e-09	0.7337794	-1.9971971e-17	0.21089734
7.075300453802754e-10	-2.9794092e-09	1.8189211e-09	0.73980737	-1.997917e-17	0.21228997
7.100481707305625e-10	-2.6008102e-09	1.2510226e-09	0.7473674	-1.9989609e-17	0.21176912
7.1251694270355e-10	-1.8436124e-09	3.292165e-10	0.7558791	-2.000292e-17	0.21298477
7.150350743735376e-10	-1.1193361e-09	1.975299e-10	0.7653113	-2.0019218e-17	0.21289338
7.175038109696856e-10	-1.3168659e-10	-1.975299e-10	0.77500653	-2.003728e-17	0.21331078
7.200219361381214e-10	2.6337318e-10	7.2427625e-10	0.78511107	-2.0057078e-17	0.21468575
7.225400718693541e-10	9.547279e-10	7.489675e-10	0.79520047	-2.0077432e-17	0.21568285
7.250088178534376e-10	1.1522577e-09	9.876494e-10	0.8048472	-2.0097076e-17	0.21626332
7.275269235998348e-10	1.9506077e-09	1.1193361e-09	0.8142099	-2.0115972e-17	0.21728814
7.300450232016985e-10	2.6666536e-09	2.5514277e-09	0.82289726	-2.0133035e-17	0.2194277
7.325137415185446e-10	2.2469024e-09	2.156368e-09	0.83062696	-2.0147501e-17	0.22053696
7.350318193598238e-10	2.0411421e-09	1.9752988e-09	0.8376441	-2.0159705e-17	0.22114702
7.375005061667929e-10	2.3045155e-09	2.2386721e-09	0.8436784	-2.0169133e-17	0.22285599
7.400185784146384e-10	2.633732e-09	3.4238514e-09	0.84903467	-2.017628e-17	0.2227578
7.425366319312205e-10	2.5020452e-09	5.135777e-09	0.8536867	-2.0181106e-17	0.22411568
7.450052935814866e-10	4.938247e-10	7.045233e-09	0.8576801	-2.0183778e-17	0.22445658
7.475233490186572e-10	-7.2427625e-10	5.267464e-09	0.86129266	-2.0184611e-17	0.22440301
7.500413894256577e-10	-1.316866e-09	2.7654186e-09	0.86454725	-2.0183741e-17	0.22540179
7.525100573248372e-10	-7.2427625e-10	2.2386721e-09	0.86747915	-2.0181402e-17	0.22548473
7.550280924871167e-10	6.255113e-10	2.5678886e-09	0.87028044	-2.017764e-17	0.22470549
7.575461267155985e-10	1.218101e-09	4.0822843e-09	0.8729525	-2.0172574e-17	0.2231247
7.600148014767707e-10	5.5966803e-10	5.069934e-09	0.87549704	-2.016637e-17	0.22084764
7.625328358515719e-10	-5.925897e-10	5.6625233e-09	0.8780601	-2.0158755e-17	0.22021276
7.650015001230784e-10	-2.0411421e-09	5.5966805e-09	0.8805805	-2.014993e-17	0.21920852
7.675195392365416e-10	-2.732497e-09	4.0822843e-09	0.88319707	-2.013939e-17	0.21733707
7.700375844952004e-10	-1.777769e-09	3.0287917e-09	0.8858991	-2.0127053e-17	0.21692953
7.72506255358313e-10	-1.316866e-09	2.633732e-09	0.8886712	-2.0112885e-17	0.21627694
7.75024318429214e-10	-1.1851794e-09	4.1481276e-09	0.8916698	-2.0095873e-17	0.21444054
7.775423826618589e-10	-1.679004e-09	4.4773443e-09	0.8948937	-2.0075645e-17	0.21482113
7.800110743346891e-10	-3.0617133e-09	4.7407176e-09	0.8983332	-2.0051879e-17	0.2138712
7.825291366558346e-10	-4.5431876e-09	4.411501e-09	0.9021976	-2.00225e-17	0.21376052
7.850472106137746e-10	-4.872404e-09	3.954713e-09	0.9065061	-1.9986399e-17	0.21315528
7.875159310357019e-10	-5.3991505e-09	3.094635e-09	0.911253	-1.994245e-17	0.21372455
7.900340339999018e-10	-7.901195e-09	2.057603e-09	0.9167214	-1.9886074e-17	0.21333414
7.925027628685995e-10	-9.810651e-09	8.5596286e-10	0.9227631	-1.9815724e-17	0.21316348
7.950208778580478e-10	-1.24773045e-08	-1.9752988e-09	0.929602	-1.9723192e-17	0.21374337
7.975390132746101e-10	-1.458429e-08	-6.4197216e-09	0.93688995	-1.9601724e-17	0.21340029
8.000077746652623e-10	-1.5934077e-08	-1.3036973e-08	0.94377434	-1.9442808e-17	0.21302791
8.025259333435803e-10	-1.5209801e-08	-2.1859975e-08	0.9487829	-1.9224e-17	0.21003573
8.050441070274716e-10	-1.059254e-08	-3.1341408e-08	0.9478935	-1.8946312e-17	0.2062112
8.075129204437044e-10	-9.876495e-11	-3.9242604e-08	0.9349178	-1.8700013e-17	0.20977512
8.10031101689418e-10	1.7119257e-08	-3.8057426e-08	0.9050135	-1.866323e-17	0.22883587
8.125492777329347e-10	3.153894e-08	-3.055129e-08	0.867257	-1.8919387e-17	0.24829
8.150180840267507e-10	4.0427786e-08	-2.0641874e-08	0.8341966	-1.9283246e-17	0.2144985
8.175364611681194e-10	4.2995673e-08	-4.1481276e-09	0.80476147	-1.9575808e-17	0.2017103
8.200056631069481e-10	3.8353722e-08	1.2822982e-08	0.7801188	-1.9756496e-17	0.20250519
8.22523735937764e-10	2.7724143e-08	2.3637744e-08	0.7599363	-1.9863371e-17	0.20643522
8.25041636071113e-10	1.619745e-08	2.7456656e-08	0.7450146	-1.9920632e-17	0.2103174
8.275102812458436e-10	6.765399e-09	2.5283827e-08	0.73520553	-1.9947838e-17	0.21147966
8.300283239204785e-10	-6.4197214e-10	2.1333229e-08	0.72951496	-1.9959602e-17	0.21215782
8.325463379511388e-10	-4.3785793e-09	1.535795e-08	0.72767633	-1.996414e-17	0.21208875
8.350149915275603e-10	-5.3991505e-09	1.158842e-08	0.7288839	-1.9966782e-17	0.21185473
8.375330539947646e-10	-5.18516e-09	8.823002e-09	0.73247933	-1.9970565e-17	0.21124016
8.400017556514655e-10	-3.9012154e-09	6.913546e-09	0.73791355	-1.9976789e-17	0.21200748
8.425198541795106e-10	-3.8189114e-09	4.7407176e-09	0.7450754	-1.9986295e-17	0.21220396
8.450379750669824e-10	-3.1275567e-09	3.9505976e-09	0.7534843	-1.9999025e-17	0.21274184
8.47506709005341e-10	-2.3374371e-09	2.6008102e-09	0.7625592	-2.0014317e-17	0.21219066
8.500248305267632e-10	-1.6131608e-09	2.3703588e-09	0.77234644	-2.0032215e-17	0.21368493
8.525429280374777e-10	-1.2510226e-09	2.5843494e-09	0.7824153	-2.0051723e-17	0.2145167
8.550116612349303e-10	-1.5143958e-09	1.835382e-09	0.79233456	-2.0071615e-17	0.21491002
8.5752976798282e-10	-5.925897e-10	1.6563705e-09	0.80226684	-2.0091825e-17	0.21549729
8.600478592734765e-10	6.58433e-10	1.637852e-09	0.8117782	-2.01111e-17	0.21757494
8.625165645567239e-10	2.2386721e-09	1.9629534e-09	0.8204941	-2.0128385e-17	0.21909942
8.650346565778033e-10	2.0411421e-09	2.1069855e-09	0.8286117	-2.0143817e-17	0.21965349