# t (s)	mx ()	my ()	mz ()	E_total (J)	MaxAngle (rad)
0	1.4156308e-09	4.609031e-10	0.979536	-2.072577e-17	0.2662729
2.5274814796403428e-12	1.4094581e-09	9.547279e-10	0.9775688	-2.0718884e-17	0.2555762
5.005338158360194e-12	8.4773244e-10	1.7283865e-09	0.97641534	-2.0709233e-17	0.25237957
7.527656917634832e-12	6.4197214e-10	1.4650133e-09	0.9759255	-2.0698297e-17	0.25065374
1.0048692862583443e-11	4.938247e-10	1.316866e-09	0.9761828	-2.0687817e-17	0.25156122
1.2519703849911359e-11	7.078154e-10	1.0534927e-09	0.9771838	-2.0679242e-17	0.25378498
1.5039655435656016e-11	4.609031e-10	1.6131608e-09	0.97888434	-2.0673116e-17	0.2605148
1.7509884811834445e-11	1.6460824e-10	1.3827093e-09	0.9810432	-2.0670168e-17	0.27016476
2.0029273795662632e-11	6.5843296e-11	1.316866e-09	0.9835146	-2.0670416e-17	0.28806427
2.254844825167999e-11	-6.255113e-10	7.901196e-10	0.9860115	-2.0673763e-17	0.31965965
2.5018078146999223e-11	-3.4567732e-10	-1.975299e-10	0.9882577	-2.0679487e-17	0.37607995
2.7536993767978523e-11	4.4444226e-10	-4.609031e-10	0.99015105	-2.0686776e-17	0.4897627
3.0006425888404695e-11	1.1851794e-09	6.5843296e-11	0.99150854	-2.0693923e-17	0.65493065
3.252516878605393e-11	9.1357577e-10	9.218062e-10	0.9924029	-2.0699563e-17	0.8692827
3.504384595780365e-11	1.0370319e-09	1.7119257e-09	0.9930211	-2.0702068e-17	1.2589035
3.7515019793627696e-11	-4.897095e-09	8.197491e-09	0.9939729	-2.0971924e-17	0.08880308
4.004243999663417e-11	-7.127537e-09	2.1069855e-09	0.9941556	-2.0996837e-17	0.08880241
4.2514113657943485e-11	-5.2510027e-09	-4.609031e-09	0.99421775	-2.1003017e-17	0.08880174
4.5033742902082367e-11	3.3003953e-09	-7.901195e-09	0.99424696	-2.1005472e-17	0.08880174
4.7503280069322004e-11	9.041107e-09	-1.9752988e-09	0.994261	-2.100653e-17	0.0888051
5.00216200366705e-11	6.4238366e-09	6.0575833e-09	0.9942685	-2.1007044e-17	0.08880107
5.253951197215417e-11	-7.571979e-10	7.3744495e-09	0.9942744	-2.1007309e-17	0.08880913
5.5007897735024854e-11	-5.2839244e-09	2.3045155e-09	0.99427396	-2.1007453e-17	0.08880913
5.7525689196975666e-11	-3.975289e-09	-3.0287917e-09	0.9942791	-2.1007534e-17	0.08881787
6.004353571061618e-11	9.711887e-10	-4.609031e-09	0.99428105	-2.1007588e-17	0.08879368
6.251196496546146e-11	4.658413e-09	-1.8436124e-09	0.99427444	-2.1007617e-17	0.08881048
6.502967858552113e-11	4.1398973e-09	2.3703588e-09	0.99427867	-2.100763e-17	0.08881249
6.754742795607063e-11	8.1481083e-10	3.8189114e-09	0.9942849	-2.1007641e-17	0.08880308
7.00158074712227e-11	-2.0041053e-09	2.1069855e-09	0.9942811	-2.1007648e-17	0.08880174
7.253360866871967e-11	-2.0740638e-09	-5.2674637e-10	0.99427575	-2.1007655e-17	0.0888051
7.500202158748806e-11	-8.230412e-12	-2.5020452e-09	0.9942773	-2.1007658e-17	0.0888051
7.751979569040604e-11	2.176944e-09	-1.5802392e-09	0.99428195	-2.1007655e-17	0.0888051
8.003757552027239e-11	3.1810543e-09	5.2674637e-10	0.9942829	-2.1007656e-17	0.08880107
8.250598246513196e-11	1.3415572e-09	2.3703588e-09	0.9942802	-2.1007658e-17	0.08880308
8.502375865356778e-11	-1.1522577e-09	1.9752988e-09	0.99427795	-2.1007656e-17	0.08880308
8.754153717062701e-11	-2.016451e-09	0	0.99427855	-2.1007655e-17	0.08880174
9.000993114690074e-11	-9.506126e-10	-1.7119257e-09	0.9942804	-2.1007658e-17	0.08880241
9.252771158168908e-11	6.769514e-10	-1.7119257e-09	0.9942813	-2.1007656e-17	0.08880174
9.504547693651535e-11	2.7654186e-09	1.3168659e-10	0.9942804	-2.1007656e-17	0.08880174
9.751388097595555e-11	1.316866e-09	1.7119257e-09	0.9942795	-2.1007658e-17	0.08880241
1.0003165819270587e-10	-8.230412e-12	1.316866e-09	0.9942793	-2.1007658e-17	0.08880174
1.0250006607230499e-10	8.230412e-12	-1.1851794e-09	0.99427986	-2.1007658e-17	0.08880174
1.0501783867553768e-10	1.3497876e-09	-1.5802392e-09	0.99428034	-2.1007658e-17	0.08880174
1.0753563325141115e-10	1.3086355e-09	-5.2674637e-10	0.9942803	-2.1007655e-17	0.08880241
1.1000404250702288e-10	4.8147913e-10	-5.2674637e-10	0.99428004	-2.1007658e-17	0.08880241
1.1252183464132122e-10	2.1399071e-10	-1.316866e-09	0.99427986	-2.1007656e-17	0.08880174
1.1503961183351028e-10	1.3827093e-09	-6.58433e-10	0.99427986	-2.1007655e-17	0.08880107
1.1750802166447608e-10	1.8106907e-09	1.3168659e-10	0.99428004	-2.1007658e-17	0.08880174
1.2002578932753637e-10	1.4897046e-09	6.58433e-10	0.99428004	-2.100766e-17	0.08880174
1.2254355975305168e-10	1.0226288e-09	7.901196e-10	0.99428004	-2.1007658e-17	0.08880174
1.25011960776743e-10	7.942348e-10	5.2674637e-10	0.9942799	-2.1007658e-17	0.08880174
1.2752972711553705e-10	6.172809e-10	5.2674637e-10	0.9942799	-2.1007658e-17	0.08880174
1.300475055690719e-10	1.2757138e-10	6.58433e-10	0.9942799	-2.100766e-17	0.08880174
1.3251589521389483e-10	0	-1.3168659e-10	0.99428004	-2.1007658e-17	0.08880107
1.3503367850532646e-10	6.111081e-10	-6.58433e-10	0.99428004	-2.1007658e-17	0.08880174
1.3750207307168142e-10	1.2571955e-09	-1.3168659e-10	0.99428004	-2.1007655e-17	0.08880241
1.4001983886409571e-10	1.3662484e-09	5.2674637e-10	0.9942799	-2.1007658e-17	0.08880241
1.425376181421405e-10	1.1851794e-09	7.901196e-10	0.99428	-2.1007658e-17	0.08880174
1.450060381436939e-10	7.407371e-10	6.58433e-10	0.99428	-2.1007658e-17	0.08880107
1.4752381498132119e-10	2.5514277e-10	5.2674637e-10	0.99428	-2.1007656e-17	0.08880241
1.5004159504446846e-10	4.5267268e-10	-3.950598e-10	0.99428	-2.1007656e-17	0.08880241
1.5251002120240606e-10	9.79419e-10	-3.950598e-10	0.99428	-2.1007658e-17	0.08880241
1.5502781111800868e-10	1.4608982e-09	2.3045155e-10	0.99428	-2.1007656e-17	0.08880174
1.5754558046516656e-10	1.1357969e-09	9.218062e-10	0.99428	-2.1007658e-17	0.08880241
1.6001399806605765e-10	7.7365875e-10	9.218062e-10	0.99428004	-2.1007658e-17	0.08880174
1.6253177129112273e-10	3.1275565e-10	5.2674637e-10	0.99428004	-2.1007658e-17	0.08880241
1.6500018010006634e-10	3.2098607e-10	1.3168659e-10	0.99428004	-2.1007656e-17	0.08880107
1.6751795963171274e-10	4.773639e-10	0	0.99428	-2.1007658e-17	0.08880107
1.700357255945122e-10	1.1934098e-09	1.3168659e-10	0.99428	-2.1007658e-17	0.08880174
1.7250413260617088e-10	1.1604882e-09	3.950598e-10	0.99428	-2.1007658e-17	0.08880174
1.7502190985985765e-10	9.711887e-10	6.58433e-10	0.99428	-2.1007658e-17	0.08880241
1.775396898664936e-10	5.5966803e-10	5.2674637e-10	0.99428	-2.1007658e-17	0.08880174
1.8000807845803415e-10	6.48145e-10	1.3168659e-10	0.99428	-2.1007658e-17	0.08880241
1.8252587438108477e-10	4.19751e-10	-1.3168659e-10	0.99428	-2.100766e-17	0.08880174
1.8504364878282256e-10	4.773639e-10	-1.3168659e-10	0.99428	-2.1007658e-17	0.08880174
1.8751206966553722e-10	1.0267439e-09	1.3168659e-10	0.99428	-2.1007658e-17	0.08880174
1.9002984247138085e-10	1.259253e-09	7.901196e-10	0.99428	-2.1007658e-17	0.08880174
1.9254761692946268e-10	6.831242e-10	1.0534927e-09	0.99428	-2.1007658e-17	0.08880241
1.9501603121000087e-10	3.950598e-10	7.901196e-10	0.99428	-2.1007658e-17	0.08880174
1.9753380661577067e-10	3.1687086e-10	2.6337318e-10	0.99428	-2.1007658e-17	0.08880107
2.0000221920103552e-10	6.090505e-10	-2.6337318e-10	0.99428	-2.1007658e-17	0.08880241
2.025199857654287e-10	7.7365875e-10	2.6337318e-10	0.99428004	-2.1007658e-17	0.08880241
2.0503777365934445e-10	1.0534927e-09	5.2674637e-10	0.99428	-2.1007656e-17	0.08880107
2.0750618777819941e-10	9.670734e-10	7.2427625e-10	0.99428	-2.1007658e-17	0.08880241
2.100239565375596e-10	6.0493527e-10	7.901196e-10	0.9942799	-2.1007658e-17	0.08880174
2.1254173378182763e-10	7.6542833e-10	0	0.99428	-2.1007658e-17	0.08880174
2.1501014003778821e-10	8.847693e-10	-1.3168659e-10	0.99428	-2.1007658e-17	0.08880174
2.1752791992329486e-10	1.2057554e-09	6.58433e-10	0.99428	-2.1007658e-17	0.08880174
2.2004570413885277e-10	6.131657e-10	2.6337318e-10	0.99428	-2.1007658e-17	0.08880107
2.2251410687569728e-10	5.843593e-10	2.6337318e-10	0.99428	-2.1007658e-17	0.08880174
2.2503187687479126e-10	7.489675e-10	1.3168659e-10	0.99428	-2.1007658e-17	0.08880174
2.2750029148735508e-10	8.127532e-10	3.950598e-10	0.99428	-2.1007658e-17	0.08880107
2.3001805889930733e-10	9.547279e-10	1.3168659e-10	0.99428	-2.1007658e-17	0.08880107
2.3253584142992371e-10	7.571979e-10	6.58433e-10	0.99428004	-2.1007658e-17	0.08880174
2.350042532091198e-10	7.2427625e-10	5.2674637e-10	0.99428	-2.1007656e-17	0.08880174
2.375220372154628e-10	7.2839146e-10	5.2674637e-10	0.99428	-2.1007658e-17	0.08880107
2.4003981136971774e-10	5.5966803e-10	3.950598e-10	0.99428004	-2.1007658e-17	0.08880174
2.425082218705375e-10	6.172809e-10	3.950598e-10	0.9942799	-2.1007658e-17	0.08880241
2.45025991885511e-10	7.2427625e-10	5.2674637e-10	0.99428	-2.1007658e-17	0.08880174
2.4754376783644143e-10	5.5966803e-10	2.6337318e-10	0.99428004	-2.1007658e-17	0.08880174
2.5001218851450235e-10	3.950598e-10	1.3168659e-10	0.99428004	-2.1007658e-17	0.08880174
2.525299589412046e-10	7.530827e-10	2.6337318e-10	0.99428004	-2.1007658e-17	0.08880241
2.550477342226661e-10	1.09876e-09	0	0.99428004	-2.1007658e-17	0.08880241
2.575161492747892e-10	7.407371e-10	7.901196e-10	0.99428	-2.1007658e-17	0.08880107
2.600339226101495e-10	6.625482e-10	6.58433e-10	0.99428	-2.1007658e-17	0.08880241
2.625023281100777e-10	6.213961e-10	1.3168659e-10	0.99428	-2.1007656e-17	0.08880174
2.6502010462685524e-10	6.79009e-10	5.2674637e-10	0.99428	-2.1007658e-17	0.08880241
2.675378797346379e-10	9.464974e-10	1.3168659e-10	0.99428	-2.1007656e-17	0.08880174
2.7000629484245716e-10	9.629583e-10	0	0.99428	-2.1007658e-17	0.08880174
2.725240756075898e-10	1.316866e-09	1.3168659e-10	0.99428004	-2.1007658e-17	0.08880241
2.750418632512688e-10	1.1316816e-09	7.901196e-10	0.99428	-2.1007656e-17	0.08880174
2.7751026457177206e-10	6.3785693e-10	5.2674637e-10	0.99428004	-2.1007658e-17	0.08880174
2.8002804847349966e-10	4.794215e-10	3.950598e-10	0.99428	-2.1007656e-17	0.08880174
2.825458248482908e-10	4.9588234e-10	0	0.99428	-2.1007658e-17	0.08880174
2.8501424370567453e-10	1.1810641e-09	3.950598e-10	0.99428004	-2.1007658e-17	0.08880241
2.875320133725853e-10	1.2016401e-09	6.58433e-10	0.99428	-2.1007658e-17	0.08880107
2.9000042016609196e-10	1.0041102e-09	7.901196e-10	0.99428004	-2.1007658e-17	0.08880107
2.925181914705057e-10	5.349768e-10	5.925897e-10	0.99428	-2.1007658e-17	0.08880174
2.950359659883076e-10	4.773639e-10	5.2674637e-10	0.99428004	-2.1007658e-17	0.08880174
2.975043778756301e-10	2.757188e-10	-1.3168659e-10	0.99428004	-2.1007656e-17	0.08880174
3.000221610528463e-10	3.292165e-10	-3.950598e-10	0.99428004	-2.1007658e-17	0.08880174
3.0253992622461365e-10	9.3003655e-10	-2.6337318e-10	0.99428	-2.1007658e-17	0.08880241
3.0500833560055116e-10	1.2818867e-09	3.950598e-10	0.99428004	-2.1007658e-17	0.08880241
3.075261282689886e-10	1.1687186e-09	7.901196e-10	0.99428	-2.1007656e-17	0.08880174
3.100439026370619e-10	8.312716e-10	7.901196e-10	0.99428004	-2.1007658e-17	0.08880174
3.125123195201208e-10	5.6789845e-10	2.6337318e-10	0.99428	-2.1007658e-17	0.08880174
3.150300872743993e-10	3.950598e-10	3.950598e-10	0.99428	-2.1007658e-17	0.08880107
3.1754786234297656e-10	5.1028554e-10	1.3168659e-10	0.99428	-2.1007658e-17	0.08880174
3.2001627996656647e-10	7.119306e-10	-2.6337318e-10	0.99428004	-2.1007658e-17	0.08880174
3.225340589568186e-10	1.0699536e-09	2.6337318e-10	0.99428	-2.1007658e-17	0.08880174
3.250024676408599e-10	1.1275665e-09	7.901196e-10	0.99428	-2.1007658e-17	0.08880241
3.2752024488048184e-10	7.571979e-10	1.0534927e-09	0.99428	-2.100766e-17	0.08880174
3.3003802654902874e-10	3.950598e-10	5.2674637e-10	0.99428	-2.1007658e-17	0.08880174
3.32506431765938e-10	3.4567732e-10	0	0.99428	-2.1007658e-17	0.08880174
3.3502420570126466e-10	4.609031e-10	2.6337318e-10	0.99428004	-2.1007658e-17	0.08880174
3.3754198232022035e-10	7.8188916e-10	1.3168659e-10	0.99428	-2.1007658e-17	0.08880174
3.4001038969074615e-10	8.888845e-10	-2.6337318e-10	0.99428	-2.1007656e-17	0.08880174
3.425281714939924e-10	1.0041102e-09	1.3168659e-10	0.99428	-2.1007658e-17	0.08880174
3.45045943604726e-10	9.876494e-10	5.2674637e-10	0.99428	-2.1007658e-17	0.08880174
3.4751435753943935e-10	6.666634e-10	7.901196e-10	0.99428	-2.1007658e-17	0.08880174
3.5003213617412904e-10	3.8682937e-10	3.950598e-10	0.99428	-2.1007658e-17	0.08880174
3.5250053709463527e-10	6.831242e-10	-1.3168659e-10	0.99428004	-2.1007656e-17	0.08880174
3.550183229051717e-10	6.666634e-10	-3.950598e-10	0.99428004	-2.1007658e-17	0.08880174
3.57536104622049e-10	1.1193361e-09	1.3168659e-10	0.99428	-2.1007656e-17	0.08880174
3.6000451149608805e-10	1.1481425e-09	3.950598e-10	0.99428004	-2.1007658e-17	0.08880174
3.625222886452344e-10	1.1440273e-09	7.901196e-10	0.99428	-2.1007658e-17	0.08880174
3.650400657800883e-10	8.6007806e-10	7.901196e-10	0.99428004	-2.1007658e-17	0.08880174
3.6750848073142707e-10	8.18926e-10	6.58433e-10	0.99428004	-2.1007656e-17	0.08880174
3.7002625695129045e-10	2.8806443e-10	3.950598e-10	0.99428	-2.1007658e-17	0.08880241
3.725440329801115e-10	4.609031e-10	2.6337318e-10	0.99428	-2.1007658e-17	0.08880174
3.7501243186519467e-10	4.8559434e-10	-5.2674637e-10	0.99428004	-2.1007658e-17	0.08880174
3.775302214156795e-10	1.057608e-09	-1.3168659e-10	0.99428	-2.1007658e-17	0.08880241
3.800479935997389e-10	1.3744789e-09	1.3168659e-10	0.99428	-2.1007658e-17	0.08880241
3.825163997544604e-10	1.29629e-09	6.58433e-10	0.99428	-2.1007658e-17	0.08880174
3.8503418120588677e-10	1.0205711e-09	6.58433e-10	0.99428004	-2.1007658e-17	0.08880174
3.875025849455385e-10	4.691335e-10	7.901196e-10	0.99428004	-2.1007658e-17	0.08880174
3.900203696566048e-10	3.8682937e-10	3.950598e-10	0.99428004	-2.1007656e-17	0.08880174
3.9253813890896036e-10	5.020551e-10	0	0.99428	-2.1007656e-17	0.08880241
3.9500653909282813e-10	7.1604583e-10	3.950598e-10	0.99428	-2.100766e-17	0.08880174
3.975243318571579e-10	7.6542833e-10	1.3168659e-10	0.99428	-2.1007656e-17	0.08880241
4.0004210872494383e-10	7.0575784e-10	5.2674637e-10	0.99428	-2.1007658e-17	0.08880174
4.025105115090334e-10	7.078154e-10	3.950598e-10	0.99428	-2.1007658e-17	0.08880174
4.050282831633276e-10	6.172809e-11	3.950598e-10	0.99428	-2.1007658e-17	0.08880241
4.075460668741021e-10	2.9217964e-10	-1.3168659e-10	0.99428	-2.1007656e-17	0.08880174
4.100144749891436e-10	4.032902e-10	3.950598e-10	0.99428004	-2.1007658e-17	0.08880174
4.1253226245206563e-10	6.9135464e-10	-6.5843296e-11	0.99428004	-2.1007658e-17	0.08880174
4.1500066083707205e-10	7.8188916e-10	3.950598e-10	0.99428	-2.1007658e-17	0.08880174
4.175184325966768e-10	7.7365875e-10	6.58433e-10	0.99428	-2.1007658e-17	0.08880241
4.200362299252956e-10	8.271564e-10	2.6337318e-10	0.99428	-2.1007658e-17	0.08880174
4.225046361584359e-10	8.641933e-10	0	0.99428	-2.1007658e-17	0.08880174
4.2502241012789647e-10	1.0267439e-09	3.950598e-10	0.99428	-2.1007658e-17	0.08880241
4.2754018354229357e-10	1.1152208e-09	3.950598e-10	0.99428004	-2.1007658e-17	0.08880174
4.300085938358443e-10	7.078154e-10	6.58433e-10	0.99428004	-2.1007658e-17	0.08880174
4.325263783914021e-10	2.6337318e-10	5.2674637e-10	0.99428	-2.1007656e-17	0.08880241
4.3504414640720637e-10	5.020551e-10	0	0.99428004	-2.1007658e-17	0.08880174
4.375125661349926e-10	1.0041102e-09	0	0.99428004	-2.1007658e-17	0.08880174
4.4003034506447993e-10	1.2469075e-09	6.58433e-10	0.99428	-2.1007658e-17	0.08880107
4.4254812063183776e-10	9.1563335e-10	7.901196e-10	0.99428	-2.1007658e-17	0.08880241
4.450165320714365e-10	7.0370026e-10	6.58433e-10	0.99428004	-2.1007656e-17	0.08880174
4.475343136614114e-10	3.374469e-10	7.901196e-10	0.99428	-2.1007658e-17	0.08880174
4.5000272051611657e-10	3.1275565e-10	2.6337318e-10	0.99428004	-2.1007656e-17	0.08880174
4.525204951603017e-10	5.2674637e-10	3.950598e-10	0.99428	-2.1007658e-17	0.08880107
4.5503826744809173e-10	4.4855747e-10	3.950598e-10	0.99428004	-2.1007658e-17	0.08880241
4.5750668363897886e-10	2.9629485e-10	0	0.99428004	-2.1007656e-17	0.08880174
4.6002445927910134e-10	4.8559434e-10	0	0.99428004	-2.1007658e-17	0.08880174
4.6254224086421854e-10	5.987625e-10	3.950598e-10	0.9942799	-2.1007658e-17	0.08880241
4.650106468083914e-10	7.9835e-10	3.950598e-10	0.99428	-2.1007658e-17	0.08880174
4.675284254028106e-10	9.1357577e-10	3.950598e-10	0.99428004	-2.1007656e-17	0.08880241
4.700461990893287e-10	8.5596286e-10	6.58433e-10	0.99428	-2.1007656e-17	0.08880174
4.725146097837178e-10	8.9711494e-10	5.2674637e-10	0.99428	-2.1007656e-17	0.08880241
4.750323970089037e-10	1.0288015e-09	6.58433e-10	0.99428004	-2.100766e-17	0.08880241
4.775007904262558e-10	6.9546985e-10	5.2674637e-10	0.99428004	-2.1007658e-17	0.08880174
4.800185806901993e-10	3.7448375e-10	3.950598e-10	0.99428004	-2.1007656e-17	0.08880241
4.825363574612704e-10	5.349768e-10	0	0.99428004	-2.1007658e-17	0.08880241
4.850047671768204e-10	8.806541e-10	-2.6337318e-10	0.99428	-2.1007658e-17	0.08880174
4.875225398806929e-10	1.0329168e-09	3.950598e-10	0.99428	-2.1007658e-17	0.08880174
4.900403199018488e-10	7.860044e-10	6.58433e-10	0.99428004	-2.1007658e-17	0.08880174
4.925087341395378e-10	6.8723943e-10	5.2674637e-10	0.99428004	-2.1007658e-17	0.08880241
4.950265100732542e-10	6.9135464e-10	3.950598e-10	0.99428	-2.1007656e-17	0.08880174
4.975442959444406e-10	7.119306e-10	2.6337318e-10	0.99428	-2.1007656e-17	0.08880174
5.000126957055636e-10	4.773639e-10	1.3168659e-10	0.99428004	-2.1007658e-17	0.08880241
5.025304690325535e-10	3.7859896e-10	3.950598e-10	0.99428	-2.1007658e-17	0.08880241
5.050482480026696e-10	5.8641686e-10	3.950598e-10	0.99428	-2.1007656e-17	0.08880241
5.075166632085024e-10	6.5020256e-10	1.3168659e-10	0.99428	-2.1007658e-17	0.08880174
5.10034446590543e-10	8.39502e-10	0	0.99428004	-2.1007658e-17	0.08880174
5.125028407067431e-10	1.0452623e-09	5.2674637e-10	0.99428	-2.1007658e-17	0.08880174
5.150206253715245e-10	9.506126e-10	3.950598e-10	0.99428004	-2.1007658e-17	0.08880174
5.175383989464296e-10	8.765389e-10	3.950598e-10	0.99428004	-2.1007658e-17	0.08880174
5.200068099637265e-10	7.901196e-10	7.901196e-10	0.99428	-2.1007658e-17	0.08880174
5.225245876485978e-10	4.156358e-10	5.2674637e-10	0.99428004	-2.1007658e-17	0.08880174
5.250423560187639e-10	2.8600683e-10	1.3168659e-10	0.99428004	-2.1007658e-17	0.08880174
5.275107654447362e-10	8.991725e-10	0	0.99428	-2.1007658e-17	0.08880174
5.3002854029659e-10	1.0946448e-09	3.950598e-10	0.99428004	-2.1007658e-17	0.08880241
5.325463258213449e-10	8.724237e-10	5.2674637e-10	0.99428	-2.1007658e-17	0.08880174
5.35014731280129e-10	8.1481083e-10	6.58433e-10	0.99428	-2.1007656e-17	0.08880174
5.375325119550141e-10	4.8147913e-10	3.950598e-10	0.99428004	-2.1007658e-17	0.08880174
5.400009170476095e-10	3.2098607e-10	6.58433e-10	0.99428	-2.1007658e-17	0.08880174
5.425187034999656e-10	4.938247e-10	2.6337318e-10	0.99428	-2.1007658e-17	0.08880241
5.450364752988279e-10	6.666634e-10	1.3168659e-10	0.99428	-2.1007658e-17	0.08880241
5.475048927069134e-10	7.7365875e-10	0	0.99428	-2.1007658e-17	0.08880241
5.500226737630372e-10	9.753038e-10	0	0.99428	-2.1007656e-17	0.08880241
5.525404464895264e-10	8.39502e-10	0	0.99428004	-2.1007658e-17	0.08880174
5.550088557209193e-10	8.806541e-10	5.925897e-10	0.99428004	-2.1007658e-17	0.08880174
5.575266313991564e-10	6.4197214e-10	3.950598e-10	0.99428	-2.1007658e-17	0.08880241
5.600443976395383e-10	3.1275565e-10	2.6337318e-10	0.99428	-2.1007658e-17	0.08880174
5.625128179556447e-10	3.7242615e-10	0	0.99428004	-2.1007658e-17	0.08880241
5.650305832873453e-10	1.0329168e-09	1.3168659e-10	0.99428004	-2.1007656e-17	0.08880241
5.675483610623088e-10	1.0288015e-09	6.58433e-10	0.99428	-2.1007658e-17	0.08880241
5.700167825514353e-10	1.0082255e-09	6.58433e-10	0.99428	-2.1007658e-17	0.08880241
5.725345503718407e-10	7.571979e-10	6.58433e-10	0.99428	-2.1007656e-17	0.08880174
5.750029645248946e-10	6.0082006e-10	6.58433e-10	0.99428	-2.1007658e-17	0.08880174
5.775207356632345e-10	5.020551e-10	3.950598e-10	0.99428004	-2.1007658e-17	0.08880241
5.80038511385426e-10	9.3003655e-10	0	0.99428	-2.1007658e-17	0.08880174
5.825069298261828e-10	8.312716e-10	5.2674637e-10	0.99428	-2.1007658e-17	0.08880174
5.850246985373863e-10	6.4608735e-10	7.901196e-10	0.99428	-2.1007658e-17	0.08880174
5.875424890607446e-10	3.99175e-10	2.6337318e-10	0.99428004	-2.1007656e-17	0.08880241
5.900108992924784e-10	6.5020256e-10	0	0.99428	-2.1007656e-17	0.08880241
5.925286725257681e-10	5.967049e-10	0	0.99428	-2.1007658e-17	0.08880174
5.95046441479048e-10	7.7777396e-10	-2.6337318e-10	0.99428	-2.1007658e-17	0.08880174
5.975148613751392e-10	1.2016401e-09	0	0.99428	-2.1007656e-17	0.08880241
6.000326451075497e-10	9.958798e-10	5.2674637e-10	0.99428004	-2.1007656e-17	0.08880241
6.025010538153188e-10	1.0288015e-09	5.2674637e-10	0.99428004	-2.1007658e-17	0.08880174
6.050188301500355e-10	6.090505e-10	7.901196e-10	0.99428	-2.1007658e-17	0.08880174
6.075366062713694e-10	2.2222113e-10	9.218062e-10	0.99428004	-2.1007658e-17	0.08880174
6.100050198376071e-10	-2.4691237e-11	3.950598e-10	0.99428	-2.1007656e-17	0.08880174
6.125227804018033e-10	4.897095e-10	0	0.99428	-2.1007658e-17	0.08880174
6.150405579326151e-10	5.843593e-10	2.6337318e-10	0.99428004	-2.1007658e-17	0.08880174
6.175089721574517e-10	4.732487e-10	3.950598e-10	0.99428004	-2.1007658e-17	0.08880174
6.200267478475921e-10	8.9711494e-10	1.3168659e-10	0.99428	-2.1007656e-17	0.08880174
6.225445330443432e-10	6.0082006e-10	3.950598e-10	0.99428004	-2.1007656e-17	0.08880241
6.250129453359537e-10	4.670759e-10	3.950598e-10	0.99428004	-2.1007656e-17	0.08880174
6.275307317459297e-10	6.255113e-10	1.3168659e-10	0.99428004	-2.1007656e-17	0.08880174
6.300484974166168e-10	1.0452623e-09	1.3168659e-10	0.99428004	-2.1007658e-17	0.08880174
6.325169098746435e-10	8.724237e-10	5.2674637e-10	0.99428	-2.1007658e-17	0.08880174
6.350346878931609e-10	7.9629237e-10	3.950598e-10	0.9942799	-2.1007658e-17	0.08880174
6.375031028769374e-10	6.9958506e-10	2.6337318e-10	0.99428	-2.1007658e-17	0.08880174
6.400208796344665e-10	7.2427625e-10	-2.6337318e-10	0.99428004	-2.1007658e-17	0.08880174
6.425386454448937e-10	9.506126e-10	2.6337318e-10	0.99428	-2.1007658e-17	0.08880174
6.450070609598583e-10	1.0493776e-09	3.950598e-10	0.99428	-2.1007656e-17	0.08880174
6.475248354127947e-10	8.39502e-10	5.2674637e-10	0.99428004	-2.1007658e-17	0.08880241
6.500426086950703e-10	8.888845e-10	6.58433e-10	0.99428	-2.1007658e-17	0.08880174
6.525110242970331e-10	7.0370026e-10	7.901196e-10	0.99428004	-2.1007656e-17	0.08880174
6.550288025002143e-10	9.506126e-10	5.2674637e-10	0.99428004	-2.1007658e-17	0.08880174
6.575465772667556e-10	7.078154e-10	8.5596286e-10	0.9942799	-2.1007658e-17	0.08880241
6.600149805198965e-10	3.5185013e-10	5.2674637e-10	0.99428	-2.1007658e-17	0.08880174
6.625327623308341e-10	5.5966803e-10	-9.876495e-11	0.99428004	-2.1007658e-17	0.08880174
6.650011680858713e-10	8.9299973e-10	1.3168659e-10	0.99428	-2.1007658e-17	0.08880241
6.675189468824847e-10	1.2160434e-09	5.2674637e-10	0.99428004	-2.1007656e-17	0.08880174
6.700367310997407e-10	9.1357577e-10	7.901196e-10	0.99428	-2.1007656e-17	0.08880174
6.725051394226176e-10	3.2098607e-10	7.901196e-10	0.99428004	-2.1007656e-17	0.08880174
6.750229223748858e-10	2.057603e-10	0	0.99428004	-2.1007658e-17	0.08880107
6.77540697733175e-10	7.407371e-10	2.6337318e-10	0.99428	-2.1007658e-17	0.08880241
6.800091048059634e-10	7.489675e-10	6.58433e-10	0.99428004	-2.1007658e-17	0.08880174
6.825268759011868e-10	3.8271417e-10	7.901196e-10	0.99428	-2.1007656e-17	0.08880174
6.850446478541659e-10	6.131657e-10	5.2674637e-10	0.99428004	-2.1007658e-17	0.08880241
6.875130636601161e-10	5.514376e-10	7.901196e-10	0.99428004	-2.1007658e-17	0.08880174
6.9003083401022e-10	6.0082006e-10	3.950598e-10	0.99428	-2.1007658e-17	0.08880174
6.925486221869775e-10	7.6542833e-10	3.950598e-10	0.99428	-2.1007658e-17	0.08880174
6.950170302080398e-10	5.473224e-10	2.6337318e-10	0.99428004	-2.1007658e-17	0.08880174
6.975348088554074e-10	7.3250667e-10	0	0.99428	-2.1007656e-17	0.08880241
7.000032128842005e-10	7.448523e-10	-1.3168659e-10	0.99428	-2.1007658e-17	0.08880174
7.025209937418324e-10	7.942348e-10	5.2674637e-10	0.99428004	-2.1007656e-17	0.08880174
7.050387780556968e-10	9.38267e-10	4.938247e-10	0.99428	-2.1007658e-17	0.08880174
7.075071863900407e-10	7.078154e-10	6.58433e-10	0.99428	-2.1007658e-17	0.08880174
7.100249592789497e-10	5.802441e-10	3.950598e-10	0.99428004	-2.1007658e-17	0.08880174
7.125427399821905e-10	5.020551e-10	6.58433e-10	0.99428004	-2.1007656e-17	0.08880241
7.150111477439382e-10	3.950598e-10	3.950598e-10	0.99428	-2.1007658e-17	0.08880174
7.175289272126018e-10	5.9053207e-10	5.2674637e-10	0.99428	-2.1007658e-17	0.08880174
7.200467091916089e-10	5.9053207e-10	6.58433e-10	0.99428	-2.1007658e-17	0.08880174
7.225151230958933e-10	7.571979e-10	1.3168659e-10	0.99428	-2.1007658e-17	0.08880174
7.250328945949043e-10	6.769514e-10	3.950598e-10	0.99428004	-2.1007658e-17	0.08880174
7.275013063923235e-10	7.345643e-10	2.6337318e-10	0.99428004	-2.1007656e-17	0.08880241
7.300190786479094e-10	5.1028554e-10	5.2674637e-10	0.99428	-2.1007656e-17	0.08880174
7.325368543611047e-10	7.1604583e-10	2.6337318e-10	0.99428	-2.1007658e-17	0.08880107
7.350052642736957e-10	7.530827e-10	3.950598e-10	0.99428004	-2.1007658e-17	0.08880107
7.375230459364122e-10	4.4444226e-10	2.6337318e-10	0.99428	-2.1007658e-17	0.08880241
7.400408209391751e-10	5.925897e-10	2.6337318e-10	0.99428	-2.1007658e-17	0.08880241
7.425092339697119e-10	5.5966803e-10	5.2674637e-10	0.99428004	-2.1007658e-17	0.08880174
7.450270031395298e-10	3.4979253e-10	1.3168659e-10	0.99428	-2.1007658e-17	0.08880241
7.475447868967029e-10	4.711911e-10	0	0.99428	-2.1007658e-17	0.08880174
7.500132002000502e-10	5.7612887e-10	-2.6337318e-10	0.9942799	-2.1007658e-17	0.08880174
7.525309708907117e-10	9.0946056e-10	0	0.99428004	-2.1007656e-17	0.08880174
7.550487463294777e-10	9.773614e-10	-1.3168659e-10	0.99428004	-2.1007658e-17	0.08880174
7.575171588182403e-10	9.835343e-10	1.3168659e-10	0.99428	-2.1007658e-17	0.08880174
7.600349386664199e-10	3.8682937e-10	5.2674637e-10	0.99428004	-2.1007658e-17	0.08880174
7.625033459627988e-10	3.0658284e-10	3.950598e-10	0.99428	-2.1007655e-17	0.08880107
7.650211208886085e-10	5.349768e-10	2.6337318e-10	0.99428	-2.1007658e-17	0.08880241
7.675388936652294e-10	5.39092e-10	3.950598e-10	0.99428004	-2.1007658e-17	0.08880107
7.700072989608034e-10	5.432072e-10	2.6337318e-10	0.9942799	-2.1007658e-17	0.08880241
7.72525078516387e-10	5.967049e-10	-2.6337318e-10	0.99428	-2.100766e-17	0.08880241
7.75042862489418e-10	1.1810641e-09	0	0.99428004	-2.1007658e-17	0.08880241
7.77511265112432e-10	1.2057554e-09	2.6337318e-10	0.99428	-2.1007658e-17	0.08880174
7.800290403024421e-10	6.5431777e-10	6.58433e-10	0.99428	-2.1007655e-17	0.08880174
7.825468185738372e-10	7.8188916e-10	3.950598e-10	0.99428	-2.1007656e-17	0.08880308
7.850152301193098e-10	7.530827e-10	7.901196e-10	0.99428004	-2.1007658e-17	0.08880241
7.875330092587069e-10	2.4896996e-10	2.6337318e-10	0.99428004	-2.1007656e-17	0.08880174
7.900014190744295e-10	2.1399071e-10	2.6337318e-10	0.99428004	-2.1007658e-17	0.08880174
7.925192047886782e-10	4.732487e-10	0	0.99428	-2.1007658e-17	0.08880241
7.950369688136058e-10	5.925897e-10	-1.3168659e-10	0.99428	-2.1007656e-17	0.08880174
7.97505382251549e-10	9.1357577e-10	0	0.99428	-2.1007656e-17	0.08880174
8.000231606528403e-10	8.312716e-10	1.3168659e-10	0.99428	-2.1007658e-17	0.08880107
8.025409337335253e-10	1.2469075e-09	1.3168659e-10	0.99428004	-2.1007658e-17	0.08880174
8.050093447917932e-10	6.213961e-10	5.2674637e-10	0.99428	-2.1007658e-17	0.08880174
8.075271208952902e-10	7.9835e-10	5.2674637e-10	0.99428	-2.1007658e-17	0.08880241
8.100448957113497e-10	5.7407123e-10	7.901196e-10	0.99428	-2.1007656e-17	0.08880174
8.125133054150043e-10	4.2798143e-10	6.58433e-10	0.99428	-2.1007658e-17	0.08880174
8.150310881245855e-10	7.860044e-10	0	0.99428	-2.1007658e-17	0.08880107
8.175488786214252e-10	4.8147913e-10	-1.3168659e-10	0.99428	-2.1007658e-17	0.08880241
8.200172750960733e-10	7.7365875e-10	1.3168659e-10	0.99428	-2.1007658e-17	0.08880107
8.225350512968031e-10	7.8188916e-10	5.2674637e-10	0.99428	-2.100766e-17	0.08880241
8.250034652909345e-10	3.292165e-10	6.58433e-10	0.99428004	-2.1007656e-17	0.08880174
8.275212357214391e-10	4.938247e-10	2.6337318e-10	0.99428	-2.1007658e-17	0.08880174
8.300390175688003e-10	6.090505e-10	3.950598e-10	0.99428	-2.1007658e-17	0.08880174
8.325074259628967e-10	7.901196e-10	3.950598e-10	0.99428004	-2.1007658e-17	0.08880174
8.350252053053585e-10	4.691335e-10	7.901196e-10	0.99428	-2.1007658e-17	0.08880241
8.375429837209314e-10	3.6625333e-10	3.950598e-10	0.99428	-2.1007658e-17	0.08880174
8.400113874153918e-10	4.032902e-10	3.292165e-10	0.9942799	-2.1007656e-17	0.08880174
8.425291610026555e-10	3.292165e-10	1.3168659e-10	0.99428	-2.1007658e-17	0.08880241
8.450469426529771e-10	5.473224e-10	-1.3168659e-10	0.99428	-2.1007656e-17	0.08880107
8.475153596861796e-10	1.1357969e-09	-2.6337318e-10	0.99428	-2.1007656e-17	0.08880241
8.500331196691455e-10	1.1357969e-09	3.950598e-10	0.99428	-2.1007656e-17	0.08880241
8.525015441130719e-10	7.571979e-10	5.2674637e-10	0.99428	-2.1007658e-17	0.08880241
8.550193137953172e-10	3.292165e-10	6.58433e-10	0.99428	-2.1007658e-17	0.08880174
8.575370896783046e-10	5.555528e-10	-2.6337318e-10	0.99428004	-2.1007656e-17	0.08880174
8.600054980643311e-10	3.7242615e-10	-1.3168659e-10	0.99428	-2.1007658e-17	0.08880174
8.625232796951404e-10	8.9711494e-10	-2.6337318e-10	0.99428	-2.1007656e-17	0.08880241
8.650410536751575e-10	1.0082255e-09	3.950598e-10	0.99428	-2.1007658e-17	0.08880174
8.675094632533433e-10	9.876494e-10	5.2674637e-10	0.99428	-2.1007658e-17	0.08880174
8.700272548680257e-10	7.6542833e-10	-1.3168659e-10	0.99428004	-2.1007658e-17	0.08880174
8.725450181210677e-10	8.5596286e-10	3.950598e-10	0.99428004	-2.1007658e-17	0.08880174
8.750134276651583e-10	7.119306e-10	0	0.99428004	-2.1007656e-17	0.08880174
8.775311995091867e-10	5.2263116e-10	1.3168659e-10	0.99428	-2.1007656e-17	0.08880174
8.800489844773595e-10	4.8559434e-10	0	0.99428004	-2.1007658e-17	0.08880174
8.825173951746783e-10	4.115206e-10	-1.3168659e-10	0.99428	-2.1007658e-17	0.08880241
8.850351739692079e-10	6.58433e-10	-1.3168659e-10	0.99428	-2.1007656e-17	0.08880174
8.875035935823327e-10	1.1234512e-09	1.3168659e-10	0.99428	-2.1007658e-17	0.08880174
8.900213701392256e-10	1.1193361e-09	3.950598e-10	0.99428	-2.1007658e-17	0.08880174
8.925391442748074e-10	6.748938e-10	2.6337318e-10	0.99428004	-2.1007658e-17	0.08880241