# t (s)	mx ()	my ()	mz ()	E_total (J)	MaxAngle (rad)
0	1.1028752e-09	3.950598e-10	0.9795358	-2.0725771e-17	0.2662727
2.5170123649227136e-12	1.9613072e-08	5.7283667e-09	0.9720925	-2.0693783e-17	0.24421449
5.044444016399189e-12	3.316033e-08	3.1473096e-08	0.96521103	-2.0627355e-17	0.23364718
7.518801370306462e-12	2.3209763e-08	7.545642e-08	0.9599337	-2.0533333e-17	0.22960708
1.0041635741710853e-11	-2.2320878e-08	1.2009818e-07	0.95685875	-2.0414358e-17	0.22715366
1.2513793298355896e-11	-9.560447e-08	1.4228736e-07	0.95636827	-2.0280596e-17	0.22591008
1.5034456866001464e-11	-1.8771924e-07	1.2720925e-07	0.9582013	-2.0125513e-17	0.22593376
1.7505094140007012e-11	-2.8385045e-07	6.1761014e-08	0.96161884	-1.9945528e-17	0.22341569
2.0024749709063516e-11	-3.674056e-07	-7.637823e-08	0.96520334	-1.971393e-17	0.218797
2.2544119784193907e-11	-3.9436844e-07	-2.8799857e-07	0.96513283	-1.9415697e-17	0.21016861
2.5013908410583253e-11	-2.9993268e-07	-5.233225e-07	0.95395285	-1.9128176e-17	0.20543103
2.7532930729356274e-11	-5.767873e-08	-6.797662e-07	0.92383057	-1.9061527e-17	0.22143026
3.000239696250744e-11	2.3064906e-07	-6.489515e-07	0.8832384	-1.9249977e-17	0.24946822
3.2521145203684194e-11	4.6287838e-07	-4.0263177e-07	0.84810334	-1.9536635e-17	0.22775157
3.503990125218535e-11	6.1537145e-07	-1.3720097e-07	0.820495	-1.9771837e-17	0.20536762
3.750927346116313e-11	6.5971693e-07	9.755507e-08	0.7987762	-1.9913664e-17	0.20241034
4.002759923384431e-11	5.850753e-07	2.9117552e-07	0.78186333	-1.9991475e-17	0.20680566
4.25455932486644e-11	4.24537e-07	4.1105972e-07	0.77003187	-2.0028567e-17	0.21069422
4.501438284363324e-11	2.395873e-07	4.4733937e-07	0.76287633	-2.0043251e-17	0.21140811
4.753259231607951e-11	7.552226e-08	4.171173e-07	0.7593704	-2.0047814e-17	0.21283837
5.0001401933468794e-11	-3.5242625e-08	3.4989128e-07	0.7591261	-2.0048848e-17	0.21281128
5.251953996128283e-11	-9.568677e-08	2.7157068e-07	0.76145804	-2.0050105e-17	0.21229196
5.503766740838368e-11	-1.1866608e-07	2.0460804e-07	0.76570207	-2.0053315e-17	0.21284345
5.7506433278629953e-11	-1.2166196e-07	1.5413916e-07	0.7713077	-2.0059006e-17	0.21367565
6.002458427469389e-11	-1.1697062e-07	1.15884205e-07	0.7781937	-2.0067402e-17	0.21365175
6.254276639685499e-11	-1.07983006e-07	8.648517e-08	0.7858923	-2.0078044e-17	0.21492623
6.501157441961613e-11	-9.5769074e-08	6.055526e-08	0.7938488	-2.0090055e-17	0.21586742
6.752974001575424e-11	-7.7332956e-08	3.7724096e-08	0.8020523	-2.0103144e-17	0.21611327
7.004791555669888e-11	-5.2378343e-08	2.0845576e-08	0.81008595	-2.0116281e-17	0.21838196
7.251670168771009e-11	-2.3999881e-08	1.1746856e-08	0.8175914	-2.0128504e-17	0.21937293
7.503486648953022e-11	4.9053255e-09	1.0798301e-08	0.82469225	-2.0139709e-17	0.22066633
7.750364476817887e-11	2.8905207e-08	1.659251e-08	0.8309825	-2.014911e-17	0.22237408
8.00217861762329e-11	4.556356e-08	2.814801e-08	0.8366483	-2.0156922e-17	0.22302447
8.253993151543065e-11	5.435364e-08	4.0213795e-08	0.841561	-2.0162944e-17	0.22443701
8.500868800399729e-11	5.6493548e-08	5.226312e-08	0.84570515	-2.0167204e-17	0.22536632
8.752681313677771e-11	5.27734e-08	6.301204e-08	0.84933615	-2.0170002e-17	0.22515178
9.004493321223228e-11	4.572817e-08	7.137413e-08	0.85246366	-2.017142e-17	0.22667359
9.251367191062232e-11	3.6674717e-08	7.706958e-08	0.8551315	-2.0171645e-17	0.2273497
9.503179463219792e-11	2.7275586e-08	7.9407016e-08	0.85752755	-2.017086e-17	0.22739731
9.750053440961334e-11	1.8732418e-08	8.0592194e-08	0.8596243	-2.0169249e-17	0.22752337
1.0001864777258932e-10	1.0962909e-08	8.023006e-08	0.8615621	-2.0166883e-17	0.22841217
1.0253676481290914e-10	3.0617133e-09	7.9407016e-08	0.8633419	-2.0163904e-17	0.229036
1.0500549839718008e-10	-4.2962753e-09	7.753048e-08	0.8649686	-2.0160471e-17	0.22930992
1.0752361043708006e-10	-1.1423812e-08	7.3546964e-08	0.8665348	-2.0156504e-17	0.22934926
1.1004172837458064e-10	-1.7448473e-08	6.956344e-08	0.86802995	-2.0152102e-17	0.22916223
1.1251046655061918e-10	-2.2320878e-08	6.597499e-08	0.8694445	-2.0147382e-17	0.22874652
1.1502858712417491e-10	-2.6436084e-08	6.367047e-08	0.87085044	-2.014215e-17	0.2281003
1.1754670335563903e-10	-3.2197374e-08	6.1761014e-08	0.87223244	-2.0136484e-17	0.22723094
1.2001542174714213e-10	-3.7826975e-08	5.813963e-08	0.873576	-2.0130484e-17	0.22616753
1.225335525175506e-10	-4.3226123e-08	5.3464756e-08	0.8749459	-2.0123858e-17	0.22485977
1.2500228684077537e-10	-4.793392e-08	4.8987413e-08	0.87629867	-2.0116809e-17	0.22334655
1.2752041243955902e-10	-5.2839248e-08	4.5036817e-08	0.8776994	-2.0108982e-17	0.22273459
1.3003852674909576e-10	-5.7020294e-08	3.976935e-08	0.8791323	-2.0100408e-17	0.22223783
1.3250726908248964e-10	-6.1761014e-08	3.535785e-08	0.8805797	-2.0091157e-17	0.22147124
1.3502537735751567e-10	-6.643589e-08	3.0880507e-08	0.88211286	-2.0080704e-17	0.22036605
1.375435019320795e-10	-7.252639e-08	2.4493707e-08	0.8837181	-2.0069035e-17	0.2188909
1.400122486328848e-10	-7.8748585e-08	1.698757e-08	0.88537824	-2.0056162e-17	0.21843092
1.4253038339984845e-10	-8.388436e-08	8.691315e-09	0.88717914	-2.0041263e-17	0.21810997
1.450485153399297e-10	-9.043577e-08	-1.4485525e-09	0.88911223	-2.0024165e-17	0.217284
1.4751726345348401e-10	-9.6427506e-08	-1.237854e-08	0.89116275	-2.0004744e-17	0.21585575
1.5003539718869624e-10	-1.031106e-07	-2.5481356e-08	0.89344615	-1.9981527e-17	0.21552238
1.5250414928141002e-10	-1.1012291e-07	-4.1810495e-08	0.8959116	-1.9954503e-17	0.21528868
1.5502227983695536e-10	-1.16378025e-07	-6.2156076e-08	0.89870584	-1.9921322e-17	0.2139717
1.5754042851656317e-10	-1.224027e-07	-8.855923e-08	0.9018394	-1.9880692e-17	0.21397002
1.600091919845907e-10	-1.2582655e-07	-1.2174425e-07	0.9053029	-1.9831245e-17	0.2135179
1.625273443734341e-10	-1.247072e-07	-1.6539836e-07	0.90929884	-1.9767565e-17	0.21325615
1.6504551073087122e-10	-1.1417228e-07	-2.2083842e-07	0.9138085	-1.9685598e-17	0.21279123
1.675142930560447e-10	-8.809833e-08	-2.9050062e-07	0.9187113	-1.9580677e-17	0.21340734
1.700324729997317e-10	-3.548954e-08	-3.7543847e-07	0.92401934	-1.9438703e-17	0.21297574
1.7250128827487702e-10	5.511084e-08	-4.695944e-07	0.9289697	-1.9251802e-17	0.21167353
1.750194843153615e-10	2.0371917e-07	-5.6361864e-07	0.93235725	-1.8995615e-17	0.21151829
1.7753770319940844e-10	4.187469e-07	-6.266965e-07	0.9310243	-1.8665557e-17	0.20984752
1.800065400950645e-10	6.8384435e-07	-5.9298475e-07	0.9200999	-1.831698e-17	0.21330091
1.8252477888572805e-10	9.536908e-07	-3.712245e-07	0.894973	-1.8093683e-17	0.23349601
1.8504302516618283e-10	1.1659531e-06	-8.085557e-08	0.86121905	-1.8221151e-17	0.25196487
1.8751188224467276e-10	1.2881583e-06	2.6133205e-07	0.8277292	-1.8644871e-17	0.21389927
1.9003021571528157e-10	1.070217e-06	7.0157677e-07	0.7939207	-1.907194e-17	0.19973871
1.9254884767193467e-10	6.043098e-07	1.0005548e-06	0.76195	-1.9375176e-17	0.20025416
1.9501806136221102e-10	1.247319e-07	1.0635009e-06	0.73440474	-1.9567986e-17	0.20567925
1.9753604935609304e-10	-2.4684653e-07	9.2957566e-07	0.71153873	-1.9688842e-17	0.20993677
2.000047355186199e-10	-4.53792e-07	6.899061e-07	0.6946644	-1.9756319e-17	0.21179491
2.025228886205656e-10	-5.2608794e-07	4.253477e-07	0.6827508	-1.9791833e-17	0.21148477
2.0504102160560463e-10	-5.009029e-07	2.0082206e-07	0.67579836	-1.9808047e-17	0.21155094
2.075097781170863e-10	-4.2574277e-07	4.6617053e-08	0.6730972	-1.9814825e-17	0.21091755
2.1002790214958844e-10	-3.363111e-07	-4.3588262e-08	0.67365295	-1.981861e-17	0.21096681
2.1254605626780146e-10	-2.5883e-07	-8.704484e-08	0.6769756	-1.9822909e-17	0.21143281
2.1501490154252765e-10	-1.9906898e-07	-1.0758795e-07	0.6825359	-1.9829559e-17	0.21126376
2.1753311982663074e-10	-1.5056716e-07	-1.1864962e-07	0.6901256	-1.9839757e-17	0.21129274
2.2000196056880928e-10	-1.11555e-07	-1.237854e-07	0.6990099	-1.9853377e-17	0.21153276
2.2252017286784788e-10	-7.516012e-08	-1.237854e-07	0.70917165	-1.9870832e-17	0.21193352
2.250383832677367e-10	-4.408209e-08	-1.1733275e-07	0.7201655	-1.9891522e-17	0.21137373
2.2750723867403716e-10	-2.115216e-08	-1.06402766e-07	0.73153216	-1.9914436e-17	0.21189243
2.3002544236966965e-10	-3.851833e-09	-9.132465e-08	0.743514	-1.9939907e-17	0.2127636
2.3254365579790602e-10	6.18927e-09	-7.6049005e-08	0.755673	-1.9966813e-17	0.21339804
2.3501248371131263e-10	1.0534928e-08	-6.3571704e-08	0.76756126	-1.9993877e-17	0.21394645
2.3753067308546143e-10	1.3958779e-08	-5.0633496e-08	0.77945095	-2.00214e-17	0.2145713
2.4004886925587126e-10	1.5012272e-08	-3.8436024e-08	0.7908995	-2.0048008e-17	0.21524544
2.4251767951250727e-10	1.4287996e-08	-2.3851735e-08	0.8014998	-2.0072393e-17	0.2167827
2.4503585105296937e-10	1.1226282e-08	-7.775682e-09	0.8114856	-2.0094788e-17	0.21896307
2.47504635231492e-10	4.7736393e-09	7.78597e-09	0.82031035	-2.0113795e-17	0.22073115
2.5002279475242435e-10	-5.8271317e-09	2.3036923e-08	0.8282251	-2.0129912e-17	0.22144628
2.5254091332892174e-10	-1.8436124e-08	3.23949e-08	0.8350181	-2.0142753e-17	0.22351037
2.550096910037275e-10	-2.9267346e-08	3.534139e-08	0.8406426	-2.0152401e-17	0.22426261
2.5752781743537645e-10	-3.9077996e-08	3.3497777e-08	0.84543926	-2.0159576e-17	0.22560254
2.600459184237052e-10	-4.556356e-08	2.8444305e-08	0.8494352	-2.0164413e-17	0.22530818
2.625146678869664e-10	-5.03372e-08	2.1662444e-08	0.85272527	-2.0167226e-17	0.22684936
2.6503278014684725e-10	-5.2296038e-08	1.38600145e-08	0.8555792	-2.0168438e-17	0.22747765
2.6750149419331387e-10	-5.234542e-08	6.1234267e-09	0.8579984	-2.0168293e-17	0.22740074
2.7001960380479946e-10	-5.0929792e-08	-3.292165e-10	0.86017156	-2.0167044e-17	0.22781493
2.7253769162997317e-10	-4.8987413e-08	-4.707796e-09	0.86211973	-2.0164898e-17	0.22865345
2.750064125671598e-10	-4.6880427e-08	-9.613121e-09	0.86386454	-2.0162084e-17	0.22916067
2.775245045920215e-10	-4.4707598e-08	-1.3530798e-08	0.86551714	-2.0158615e-17	0.22933614
2.800426066142155e-10	-4.1843414e-08	-1.7316788e-08	0.86707354	-2.0154623e-17	0.2293128
2.825113255073698e-10	-3.9045077e-08	-2.0938169e-08	0.8685305	-2.0150245e-17	0.22904177
2.850294282624301e-10	-3.51274e-08	-2.475708e-08	0.86996573	-2.0145337e-17	0.22853008
2.8754753036884993e-10	-3.1110957e-08	-2.7193282e-08	0.87136626	-2.0139987e-17	0.2277983
2.900162677753768e-10	-2.8115087e-08	-2.8905207e-08	0.87271863	-2.0134296e-17	0.22686684
2.925343583104883e-10	-2.4724159e-08	-3.074882e-08	0.8740896	-2.0128011e-17	0.22569764
2.950030845149569e-10	-2.176121e-08	-3.2592432e-08	0.87543637	-2.0121329e-17	0.22433148
2.9752118212781377e-10	-1.896287e-08	-3.4370203e-08	0.8768234	-2.011392e-17	0.22291286
3.0003929371807653e-10	-1.4683056e-08	-3.693809e-08	0.87823546	-2.0105828e-17	0.22257939
3.025080158386761e-10	-1.0798301e-08	-3.897923e-08	0.87965494	-2.0097126e-17	0.2219908
3.0502613330699706e-10	-7.111076e-09	-4.148128e-08	0.88115096	-2.0087337e-17	0.22109485
3.0754423310901647e-10	-1.9752988e-09	-4.431254e-08	0.8827097	-2.0076451e-17	0.21985583
3.1001297873316037e-10	3.6213814e-09	-4.576109e-08	0.88431346	-2.0064505e-17	0.21842295
3.1253109847887316e-10	9.3497485e-09	-4.727549e-08	0.8860444	-2.0050762e-17	0.21836187
3.1504920767849467e-10	1.5143959e-08	-4.8263136e-08	0.8878925	-2.0035089e-17	0.2178644
3.175179455358015e-10	2.2255035e-08	-5.0370122e-08	0.88984185	-2.0017407e-17	0.21684228
3.2003606483577814e-10	3.1275565e-08	-5.2016205e-08	0.89200044	-1.9996425e-17	0.21528478
3.2250481653106e-10	4.072408e-08	-5.175283e-08	0.89431834	-1.99722e-17	0.21553686
3.2502293826256476e-10	5.2674636e-08	-5.1423616e-08	0.896931	-1.9942717e-17	0.21493936
3.275410750284974e-10	6.702847e-08	-5.017259e-08	0.89984626	-1.9906967e-17	0.21341352
3.3000981501813855e-10	8.365391e-08	-4.655121e-08	0.90305626	-1.9863885e-17	0.21402138
3.3252796113566206e-10	1.0475669e-07	-3.930845e-08	0.9067542	-1.9808989e-17	0.21277232
3.3504611103717363e-10	1.295796e-07	-2.6995751e-08	0.91094065	-1.973908e-17	0.2134864
3.3751487982120536e-10	1.5993336e-07	-6.3209566e-09	0.9155485	-1.9650529e-17	0.21254273
3.400330366552121e-10	1.9483032e-07	3.0024545e-08	0.9206988	-1.9531853e-17	0.2129732
3.425018318164727e-10	2.3015525e-07	8.480617e-08	0.925905	-1.9376747e-17	0.2131877
3.45020008803705e-10	2.6014686e-07	1.6829547e-07	0.93056405	-1.9163708e-17	0.21199104
3.4753820033598817e-10	2.7094518e-07	2.837846e-07	0.93264633	-1.8879006e-17	0.21086173
3.5000702694552316e-10	2.403445e-07	4.213971e-07	0.92844474	-1.8535476e-17	0.2095546
3.525252531320283e-10	1.2553025e-07	5.558491e-07	0.9122678	-1.8205094e-17	0.21826859
3.550434786772101e-10	-8.276503e-08	6.313055e-07	0.88259214	-1.8091876e-17	0.24712797
3.5751232646120685e-10	-2.807558e-07	6.826633e-07	0.84894466	-1.8358392e-17	0.23595528
3.600305575742002e-10	-5.079152e-07	6.0049086e-07	0.8148802	-1.881843e-17	0.20554496
3.625489882000572e-10	-6.6231775e-07	3.2355396e-07	0.7815094	-1.9201181e-17	0.19903967
3.650183002415217e-10	-6.737415e-07	5.563759e-09	0.75136596	-1.9455872e-17	0.20256594
3.675366617319625e-10	-5.649355e-07	-2.448054e-07	0.7251027	-1.9621196e-17	0.20777556
3.7000527146113935e-10	-3.9476348e-07	-3.762286e-07	0.7047502	-1.9718287e-17	0.21068825
3.725233803463355e-10	-2.1514298e-07	-4.0625315e-07	0.6895576	-1.9772811e-17	0.21170162
3.7504150412154656e-10	-6.702847e-08	-3.6701053e-07	0.6795695	-1.9799594e-17	0.2117986
3.7751024750679243e-10	3.23949e-08	-2.957681e-07	0.6743889	-1.9811187e-17	0.21128081
3.8002835346174034e-10	8.7143604e-08	-2.2044335e-07	0.67295283	-1.9816384e-17	0.21084124
3.825464994403724e-10	1.07209345e-07	-1.5670705e-07	0.6746046	-1.9820033e-17	0.2111435
3.8501531406617807e-10	1.0984308e-07	-1.1022168e-07	0.67876256	-1.9824991e-17	0.2115055
3.8753350971108626e-10	1.06485075e-07	-7.506136e-08	0.68519956	-1.9832977e-17	0.21078569
3.9000233116322743e-10	1.0176905e-07	-4.872404e-08	0.6932258	-1.9844314e-17	0.21171267
3.925205411771578e-10	9.432053e-08	-2.6205631e-08	0.70273364	-1.9859566e-17	0.2107347
3.9503873552129466e-10	8.497077e-08	-7.3744495e-09	0.7132384	-1.9878293e-17	0.21194202
3.975075468206097e-10	7.4814444e-08	5.6625233e-09	0.7242597	-1.9899616e-17	0.21217905
4.000257591807414e-10	6.4032605e-08	1.4485526e-08	0.7360221	-1.9923843e-17	0.211961
4.0254394861913483e-10	5.3398914e-08	1.9621302e-08	0.7480961	-1.9949935e-17	0.21199784
4.050127561408108e-10	4.414793e-08	2.1827052e-08	0.7600283	-1.9976653e-17	0.21319756
4.075309328372616e-10	3.535785e-08	2.0608953e-08	0.77208954	-2.0004323e-17	0.21428333
4.100490969876184e-10	2.795048e-08	1.9654225e-08	0.7838365	-2.0031601e-17	0.21543148
4.1251787703104944e-10	2.0608953e-08	1.7876456e-08	0.7948515	-2.0057146e-17	0.21659446
4.1503603384688956e-10	1.237854e-08	1.4119272e-08	0.8053775	-2.0081176e-17	0.21769862
4.1750479672844354e-10	3.555538e-09	7.847698e-09	0.81482494	-2.0102089e-17	0.21860276
4.2002292658093686e-10	-3.7201462e-09	-9.3003655e-10	0.8234304	-2.0120272e-17	0.22119103
4.225410487367955e-10	-8.156339e-09	-1.0049333e-08	0.8309201	-2.0135136e-17	0.22270139
4.2500977963303783e-10	-9.362094e-09	-1.84032e-08	0.8371853	-2.0146598e-17	0.22336674
4.2752788272269594e-10	-7.999961e-09	-2.5283827e-08	0.84255725	-2.0155405e-17	0.2250439
4.3004596798022136e-10	-3.7859897e-09	-2.9267346e-08	0.84703326	-2.0161657e-17	0.22558069
4.3251467200851794e-10	1.679004e-09	-3.0880507e-08	0.8507007	-2.0165646e-17	0.22601889
4.350327415342181e-10	6.18927e-09	-3.0682976e-08	0.8538552	-2.0167863e-17	0.22717564
4.375014357090966e-10	1.017279e-08	-2.976117e-08	0.8565003	-2.0168524e-17	0.22751756
4.400194951078758e-10	1.4090466e-08	-2.814801e-08	0.8588491	-2.0167939e-17	0.227232
4.4253755889705184e-10	1.8501966e-08	-2.6469005e-08	0.86092997	-2.0166329e-17	0.22815196
4.4500624202289996e-10	2.2024583e-08	-2.3045153e-08	0.8627731	-2.0163944e-17	0.22888052
4.4752430743147773e-10	2.3407292e-08	-1.9423773e-08	0.86450136	-2.0160842e-17	0.22926481
4.500423673417209e-10	2.4329099e-08	-1.6460824e-08	0.8661143	-2.0157167e-17	0.22935869
4.52511063120426e-10	2.5316748e-08	-1.4320917e-08	0.8676121	-2.0153076e-17	0.22924146
4.550291277823801e-10	2.5843494e-08	-1.2148089e-08	0.8690772	-2.0148446e-17	0.22887579
4.575471836286293e-10	2.6732378e-08	-9.3497485e-09	0.8704976	-2.0143372e-17	0.22827972
4.600158693635568e-10	2.7654185e-08	-7.045233e-09	0.87186146	-2.0137963e-17	0.22748162
4.625339332261169e-10	2.8806442e-08	-3.8189114e-09	0.87323636	-2.0131983e-17	0.22645229
4.6500263110582403e-10	2.8279697e-08	-4.609031e-10	0.8745801	-2.0125635e-17	0.22522706
4.67520691465652e-10	2.8246774e-08	1.5802392e-09	0.8759574	-2.0118609e-17	0.22374527
4.700387538902625e-10	2.7720029e-08	3.4896948e-09	0.8773526	-2.0110953e-17	0.22281715
4.725074396593385e-10	2.8575991e-08	6.18927e-09	0.8787486	-2.0102749e-17	0.2223957
4.750254964076002e-10	2.9102738e-08	9.678964e-09	0.88021284	-2.0093547e-17	0.22169064
4.775435760584788e-10	2.8938128e-08	1.3102816e-08	0.8817309	-2.008337e-17	0.22067043
4.800122699028209e-10	2.9069815e-08	1.6329137e-08	0.88328516	-2.007225e-17	0.2193217
4.82530356728234e-10	2.8575991e-08	2.0477266e-08	0.8849541	-2.0059525e-17	0.21844578
4.850484281314084e-10	2.6896988e-08	2.5481356e-08	0.8867264	-2.0045096e-17	0.21823114
4.875171309556886e-10	2.5810573e-08	2.99587e-08	0.8885861	-2.002893e-17	0.21755892
4.900352076293942e-10	2.3308527e-08	3.5226165e-08	0.89063406	-2.000988e-17	0.21628
4.925039101093721e-10	2.1728289e-08	4.0954532e-08	0.8928206	-1.9988057e-17	0.21544655
4.9502198637797e-10	1.8271516e-08	4.753886e-08	0.8952715	-1.9961716e-17	0.21543148
4.975400738344556e-10	1.4222152e-08	5.59668e-08	0.89799166	-1.9930065e-17	0.21441644
5.000087930056343e-10	7.0781545e-09	6.5382395e-08	0.900973	-1.98923e-17	0.21379872
5.025268856581775e-10	-2.3703588e-09	7.631238e-08	0.9043968	-1.9844668e-17	0.21381614
5.05044984209801e-10	-1.6427903e-08	8.775265e-08	0.90827245	-1.9784658e-17	0.21289085
5.075137139178019e-10	-3.6082128e-08	9.9620905e-08	0.9125632	-1.9709443e-17	0.2132691
5.100318280359385e-10	-6.439475e-08	1.1180192e-07	0.9174455	-1.9609676e-17	0.21328261
5.125005894160695e-10	-1.0373611e-07	1.2049324e-07	0.9226052	-1.9480457e-17	0.2123061
5.150187274988553e-10	-1.5940662e-07	1.2036155e-07	0.92780924	-1.9303884e-17	0.21253708
5.175368717407306e-10	-2.3130751e-07	1.021888e-07	0.93180937	-1.906544e-17	0.21186493
5.200056619353382e-10	-3.135787e-07	5.7415356e-08	0.9320981	-1.8759194e-17	0.2103117
5.225238453547525e-10	-3.8957833e-07	-3.1999843e-08	0.9240379	-1.840005e-17	0.21093662
5.250420378194431e-10	-4.1188275e-07	-1.7869871e-07	0.9023695	-1.8123848e-17	0.2256385
5.275108620141394e-10	-3.7280475e-07	-3.3817116e-07	0.8703514	-1.814643e-17	0.25504893
5.300290579023973e-10	-3.1486266e-07	-4.889523e-07	0.83608943	-1.8529117e-17	0.22091047
5.325473246048325e-10	-1.2562901e-07	-5.717832e-07	0.80213284	-1.8977793e-17	0.2007435
5.35016477778017e-10	1.142052e-07	-5.2755297e-07	0.77011883	-1.9306655e-17	0.1995178
5.375351285378725e-10	3.0125366e-07	-3.928211e-07	0.74086154	-1.9527676e-17	0.20452443
5.400038110507302e-10	3.8812976e-07	-2.2926636e-07	0.7170424	-1.9662798e-17	0.20837168
5.425218036896531e-10	3.856771e-07	-7.5324735e-08	0.6983894	-1.9743097e-17	0.2110647
5.450398842024336e-10	3.2473915e-07	3.8715857e-08	0.68520004	-1.9785374e-17	0.21092296
5.475086063762791e-10	2.4266546e-07	1.0600771e-07	0.67719024	-1.980499e-17	0.21172203
5.500266823372856e-10	1.617276e-07	1.3405695e-07	0.6734421	-1.9813596e-17	0.21103197
5.525447732722776e-10	9.905301e-08	1.3313515e-07	0.6732435	-1.981774e-17	0.21088368
5.550135152211417e-10	5.792564e-08	1.2075661e-07	0.6758475	-1.9821582e-17	0.21132316
5.575316719854993e-10	3.012331e-08	1.06139396e-07	0.68095076	-1.9827605e-17	0.21142855
5.600004672099322e-10	1.2510227e-08	9.204893e-08	0.6879502	-1.9836691e-17	0.2107911
5.625186372077778e-10	-2.2304416e-09	8.164569e-08	0.6966715	-1.9849631e-17	0.2117589
5.650367943210919e-10	-1.4897046e-08	6.926715e-08	0.7065888	-1.9866231e-17	0.21158983
5.675055788850366e-10	-2.3621283e-08	5.8205476e-08	0.7171813	-1.9885745e-17	0.21131945
5.700237537797342e-10	-2.7489577e-08	4.5826933e-08	0.7286402	-1.9908479e-17	0.2122764
5.725419170021733e-10	-2.8016323e-08	3.4370203e-08	0.7405452	-1.993349e-17	0.21274439
5.750106850309571e-10	-2.5909337e-08	2.594226e-08	0.7524416	-1.9959577e-17	0.21295573
5.775288392061834e-10	-2.2189191e-08	2.0477266e-08	0.76459515	-1.998707e-17	0.21316601
5.800469694740667e-10	-1.7448473e-08	1.6296216e-08	0.7765618	-2.001469e-17	0.21356516
5.825157306044846e-10	-1.5999921e-08	1.3053434e-08	0.78791547	-2.0041086e-17	0.2152753
5.850338624898889e-10	-1.2213931e-08	8.510246e-09	0.79891026	-2.0066477e-17	0.2170314
5.875025913792506e-10	-7.4402924e-09	4.567879e-09	0.8089259	-2.008912e-17	0.21872778
5.900207004006142e-10	3.292165e-10	-4.4444226e-10	0.81819355	-2.0109322e-17	0.22002357
5.925387982012685e-10	1.0337398e-08	-2.057603e-09	0.8263833	-2.0126257e-17	0.22095509
5.950074923442337e-10	1.9259165e-08	-7.7365875e-10	0.83332187	-2.0139654e-17	0.22334304
5.97525553848623e-10	2.4098647e-08	3.0287917e-09	0.83932257	-2.0150237e-17	0.22359076
6.00043620315907e-10	2.4855845e-08	6.650173e-09	0.8443396	-2.0158039e-17	0.22547886
6.025123039811935e-10	2.5185061e-08	1.0008181e-08	0.8484431	-2.0163335e-17	0.22535859
6.050303301585893e-10	2.3242684e-08	1.2641913e-08	0.8519502	-2.0166683e-17	0.22657649
6.07548354972744e-10	2.3275605e-08	1.5242723e-08	0.8549172	-2.0168278e-17	0.2273965
6.100170028282513e-10	2.4082185e-08	1.813983e-08	0.85742104	-2.0168437e-17	0.22747236
6.125350267619733e-10	2.2452564e-08	2.1991662e-08	0.8596601	-2.0167441e-17	0.22755481
6.150036964655808e-10	1.8123368e-08	2.515214e-08	0.8616206	-2.0165545e-17	0.22844876
6.17521712150069e-10	1.3234502e-08	2.6666536e-08	0.86343944	-2.016285e-17	0.22906645
6.200397445607536e-10	9.38267e-09	2.5415513e-08	0.8651202	-2.0159521e-17	0.22932251
6.225083848657793e-10	7.2756845e-09	2.3637744e-08	0.86666775	-2.0155733e-17	0.2293448
6.250264033405498e-10	7.3744495e-09	2.436202e-08	0.86816984	-2.0151384e-17	0.22913206
6.275444298254399e-10	6.4197216e-09	2.6337318e-08	0.8696161	-2.0146588e-17	0.22867762
6.300130821377923e-10	3.8189114e-09	2.6995751e-08	0.8709964	-2.0141454e-17	0.22801462
6.325311248696617e-10	-5.5966803e-10	2.6600691e-08	0.87238	-2.0135771e-17	0.22712085
6.350491558723719e-10	-3.358008e-09	2.6271476e-08	0.87375206	-2.0129607e-17	0.22600771
6.375178141294514e-10	-4.5761093e-09	2.4032804e-08	0.875097	-2.0123058e-17	0.22469747
6.40035850029801e-10	-6.5184866e-09	2.3901118e-08	0.87647974	-2.0115805e-17	0.22312523
6.425045090752683e-10	-7.4073707e-09	2.416449e-08	0.8778566	-2.0108051e-17	0.22269356
6.450225410609564e-10	-9.744808e-09	2.4822922e-08	0.8792941	-2.0099389e-17	0.22216454
6.475405760361039e-10	-1.218101e-08	2.4559549e-08	0.880777	-2.0089845e-17	0.22134611
6.500092485818766e-10	-1.5242723e-08	2.4098647e-08	0.88228786	-2.0079467e-17	0.22022285
6.525272918818891e-10	-1.896287e-08	2.376943e-08	0.8839022	-2.0067638e-17	0.21870059
6.550453330600566e-10	-2.2320878e-08	2.2584251e-08	0.8856076	-2.0054314e-17	0.2184147
6.575140122730678e-10	-2.5119219e-08	2.1201542e-08	0.8873876	-2.0039473e-17	0.21804552
6.600320540623248e-10	-2.8444305e-08	2.0016362e-08	0.88933706	-2.00221e-17	0.21715565
6.625007225594486e-10	-3.3053336e-08	1.837028e-08	0.89140695	-2.0002342e-17	0.21564776
6.650187898204759e-10	-3.874878e-08	1.6394981e-08	0.8937141	-1.9978687e-17	0.21553715
6.675368461103192e-10	-4.497097e-08	1.2510227e-08	0.8962604	-1.995051e-17	0.21518515
6.700055271499797e-10	-5.188452e-08	7.506136e-09	0.8990369	-1.9917204e-17	0.2137414
6.725236005098459e-10	-6.0641675e-08	2.6337318e-10	0.9022121	-1.987561e-17	0.21400903
6.750416679442441e-10	-6.913546e-08	-9.678964e-09	0.9057982	-1.9823757e-17	0.21330205
6.775103728539277e-10	-7.841937e-08	-2.376943e-08	0.9097748	-1.9759457e-17	0.21336877
6.800284755450515e-10	-8.806541e-08	-4.5234344e-08	0.9143423	-1.9675065e-17	0.2125029
6.825465744148128e-10	-9.5966605e-08	-7.440293e-08	0.9193951	-1.9564362e-17	0.21334709
6.850153086775442e-10	-9.9127085e-08	-1.1443565e-07	0.9246098	-1.9420171e-17	0.21312852
6.875334374391314e-10	-9.0534535e-08	-1.6750535e-07	0.92955244	-1.922242e-17	0.21167353
6.900022143593706e-10	-6.406553e-08	-2.3229515e-07	0.93251985	-1.8962434e-17	0.21132798
6.925203695813903e-10	-7.703666e-09	-3.0077217e-07	0.9303735	-1.8625437e-17	0.20954314
6.950385578137616e-10	9.057569e-08	-3.4844274e-07	0.9176343	-1.8275606e-17	0.21417175
6.975073701019942e-10	2.264351e-07	-3.3448396e-07	0.8914319	-1.8087145e-17	0.23830204
7.000255626631153e-10	3.5897764e-07	-2.9524134e-07	0.857402	-1.8259911e-17	0.2476445
7.025437741091736e-10	4.745985e-07	-2.028632e-07	0.8232797	-1.8706013e-17	0.21007602
7.050127291576352e-10	4.9619507e-07	-1.0765379e-08	0.79023844	-1.9111907e-17	0.19899444
7.075313700707276e-10	4.1198152e-07	1.8725834e-07	0.75860876	-1.9401602e-17	0.20056047
7.100005221164694e-10	2.7558713e-07	3.1084622e-07	0.7315883	-1.9584694e-17	0.20560803
7.125184337725015e-10	1.2951377e-07	3.477843e-07	0.70935476	-1.9698643e-17	0.21042131
7.150364172745187e-10	9.942338e-09	3.1591614e-07	0.69281363	-1.9762516e-17	0.21190745
7.175051073010587e-10	-6.8839164e-08	2.4928272e-07	0.6817431	-1.9794363e-17	0.2116375
7.200231590458519e-10	-1.0999123e-07	1.7316788e-07	0.67530566	-1.9809128e-17	0.21146916
7.225411859411867e-10	-1.1965373e-07	1.0758795e-07	0.6729959	-1.98154e-17	0.21087855
7.250098781317685e-10	-1.1073197e-07	6.1761014e-08	0.67389256	-1.9819013e-17	0.21101375
7.275279745768555e-10	-9.568677e-08	3.094635e-08	0.67749697	-1.9823516e-17	0.21146746
7.300460967438659e-10	-8.250165e-08	1.198348e-08	0.68342566	-1.9830679e-17	0.21113354
7.325148537750386e-10	-7.086385e-08	-1.3168659e-10	0.6910654	-1.9841113e-17	0.21145667
7.350330017985675e-10	-6.0444144e-08	-1.0666614e-08	0.7002781	-1.9855456e-17	0.21132116
7.375017684267067e-10	-4.9184944e-08	-1.9094557e-08	0.7103521	-1.9872973e-17	0.21200322
7.400199241471542e-10	-3.830434e-08	-2.396696e-08	0.7214235	-1.9893983e-17	0.21169253
7.425380717672919e-10	-2.8477226e-08	-2.594226e-08	0.7330752	-1.991765e-17	0.21153873
7.450068151923752e-10	-1.958838e-08	-2.5481356e-08	0.7448541	-1.9942827e-17	0.21263933
7.475249404431949e-10	-1.3135738e-08	-2.1991662e-08	0.7570194	-1.9969844e-17	0.2134349
7.500430629220267e-10	-8.526707e-09	-1.777769e-08	0.76912665	-1.9997478e-17	0.21418326
7.525118022916044e-10	-5.7448277e-09	-1.497935e-08	0.7807416	-2.0024403e-17	0.21493211
7.550299079528877e-10	-1.7119257e-09	-1.1818872e-08	0.7921287	-2.0050855e-17	0.21575943
7.575480026940443e-10	1.4156308e-09	-6.847703e-09	0.80284953	-2.0075458e-17	0.21649292
7.600167222104215e-10	3.654303e-09	-1.1522577e-09	0.81252974	-2.0097084e-17	0.21893343
7.625347958433509e-10	4.1481276e-09	6.757168e-09	0.82140255	-2.0116078e-17	0.2209744
7.650034826734382e-10	3.456773e-09	1.1950559e-08	0.8290294	-2.0131487e-17	0.22187869
7.675215320809771e-10	2.0411421e-09	1.6032843e-08	0.8357006	-2.014398e-17	0.22350901
7.700395743249406e-10	6.255113e-10	1.919332e-08	0.8413164	-2.015348e-17	0.22457464
7.725082170750302e-10	-1.0864144e-09	2.1102776e-08	0.8459161	-2.0160218e-17	0.22562145
7.750262359916379e-10	-4.1481276e-09	2.1925818e-08	0.8498334	-2.0164817e-17	0.22554791
7.775442411243735e-10	-7.539057e-09	2.1958739e-08	0.8531215	-2.016747e-17	0.22696568
7.800128723286349e-10	-1.1325047e-08	2.1596602e-08	0.8558679	-2.0168483e-17	0.22749907
7.825308639329553e-10	-1.4617212e-08	1.8501966e-08	0.85829514	-2.0168189e-17	0.22734997
7.850488545628903e-10	-1.5703627e-08	1.48476635e-08	0.86043555	-2.0166812e-17	0.22793892
7.875174757193342e-10	-1.5851773e-08	1.2148089e-08	0.8623228	-2.0164614e-17	0.22872916
7.900354854850468e-10	-1.46501336e-08	1.0271554e-08	0.8640851	-2.0161667e-17	0.2292016
7.925041106821699e-10	-1.4156309e-08	9.514356e-09	0.86569244	-2.0158201e-17	0.2293461
7.950221178868298e-10	-1.4913507e-08	8.625472e-09	0.8672399	-2.0154151e-17	0.22929472
7.975401153029383e-10	-1.6098687e-08	7.4402924e-09	0.86871886	-2.0149635e-17	0.22898899
8.000087574511959e-10	-1.619745e-08	5.695445e-09	0.870121	-2.0144773e-17	0.22846219
8.025267543944592e-10	-1.6098687e-08	3.4238514e-09	0.8715184	-2.0139373e-17	0.22770432
8.050447621915162e-10	-1.5242723e-08	1.3827093e-09	0.87289625	-2.0133512e-17	0.22672848
8.075134009738013e-10	-1.4617212e-08	2.6337318e-10	0.87424	-2.012729e-17	0.22555724
8.100314031520658e-10	-1.4485526e-08	-1.975299e-10	0.87561464	-2.0120407e-17	0.22413552
8.125000450274739e-10	-1.4880585e-08	-1.5802392e-09	0.87697685	-2.0113065e-17	0.22288916
8.150180717166719e-10	-1.4946428e-08	-3.8189114e-09	0.8783922	-2.0104894e-17	0.22252727
8.175360883647505e-10	-1.4222152e-08	-5.267464e-09	0.87984514	-2.0095918e-17	0.22189306
8.200047377048964e-10	-1.3794171e-08	-7.308606e-09	0.8813185	-2.00862e-17	0.22097711
8.225227526861344e-10	-1.3201581e-08	-7.835352e-09	0.88288486	-2.0075184e-17	0.21969916
8.250407715469082e-10	-1.2510227e-08	-1.0074024e-08	0.88453114	-2.0062827e-17	0.2184367
8.275094345531435e-10	-1.12921255e-08	-1.1654263e-08	0.88624054	-2.0049147e-17	0.2183316
8.300274596140216e-10	-1.0798301e-08	-1.4024622e-08	0.8881026	-2.0033239e-17	0.21777862
8.32545489231953e-10	-9.481435e-09	-1.6526668e-08	0.8901099	-2.001488e-17	0.21666074
8.350141614524865e-10	-8.032882e-09	-1.9226242e-08	0.8922483	-1.9993917e-17	0.21533276
8.375322057339267e-10	-5.629602e-09	-2.1859975e-08	0.8946399	-1.9968696e-17	0.2155154
8.400008788259095e-10	-2.8312617e-09	-2.4888767e-08	0.8972338	-1.9939147e-17	0.2148063
8.425189343390674e-10	3.2921648e-11	-2.8905207e-08	0.9001855	-1.99026e-17	0.21354884
8.450369991059846e-10	4.2798143e-09	-3.311918e-08	0.90350723	-1.9857503e-17	0.21398321
8.47505698899103e-10	1.0765379e-08	-3.772821e-08	0.9071865	-1.9802171e-17	0.21248679
8.500237763958858e-10	2.0279735e-08	-4.2008022e-08	0.91142905	-1.9730322e-17	0.21346867
8.525418485273849e-10	3.2493666e-08	-4.6024464e-08	0.916189	-1.9637056e-17	0.21286461
8.550105716620172e-10	4.9580002e-08	-4.832898e-08	0.9212791	-1.951673e-17	0.21269639
8.575286885457735e-10	7.31519e-08	-4.6617053e-08	0.92656744	-1.9352805e-17	0.21306455
8.600468246863496e-10	1.0403241e-07	-3.8057426e-08	0.93103534	-1.9131367e-17	0.2120205
8.625155921313142e-10	1.3669069e-07	-1.619745e-08	0.9325751	-1.884336e-17	0.21068282