# t (s)	mx ()	my ()	mz ()	E_total (J)	MaxAngle (rad)
0	3.7242615e-10	3.2921648e-11	0.99555576	-1.2884941e-16	0.65439117
2.8019869637512098e-12	1.8106906e-10	6.5843296e-11	0.99409884	-1.2880494e-16	0.6023422
5.2183795091514714e-12	6.5843296e-11	1.975299e-10	0.99284136	-1.2871938e-16	0.55655754
7.652732013524373e-12	-6.5843296e-11	1.975299e-10	0.99175984	-1.2858496e-16	0.5755613
1.0046728414140824e-11	-6.5843296e-11	-1.3168659e-10	0.9910884	-1.2840693e-16	0.56719506
1.2714932180486093e-11	4.938247e-10	-7.201611e-11	0.9909143	-1.2816467e-16	0.5699023
1.5077133004001222e-11	4.609031e-10	5.925897e-10	0.9911648	-1.2791742e-16	0.5849051
1.7735367934350022e-11	-7.901196e-10	3.292165e-10	0.9915095	-1.2758684e-16	0.5930463
2.0096565581313436e-11	-1.6543128e-09	-1.4485525e-09	0.99118274	-1.2722153e-16	0.587336
2.2756242282457722e-11	2.6337318e-10	-3.9505976e-09	0.98859495	-1.2678245e-16	0.598824
2.507108131568794e-11	4.5761093e-09	-3.8682937e-09	0.983046	-1.2647966e-16	0.58902115
2.7685167797033962e-11	7.901195e-09	1.3004051e-09	0.9721268	-1.260059e-16	0.49724847
3.0112648345135724e-11	4.561706e-09	8.362099e-09	0.9557763	-1.2528609e-16	0.38187417
3.278875714897216e-11	-7.901195e-09	4.609031e-09	0.928696	-1.2442993e-16	0.33486032
3.5148318138762134e-11	-5.7160214e-09	-1.1851793e-08	0.89779574	-1.2362296e-16	0.35407606
3.751793676023204e-11	1.698757e-08	-1.1193361e-08	0.8621352	-1.2220339e-16	0.38509354
4.0181689008623115e-11	2.1069855e-08	1.6329137e-08	0.8153504	-1.1927975e-16	0.3947505
4.256873847249945e-11	1.7119257e-09	-1.6724197e-08	0.76287323	-1.1636502e-16	0.33653578
4.528071638112981e-11	1.3653431e-07	-1.178595e-07	0.6936912	-1.1503897e-16	0.22262879
4.772736809179676e-11	2.779904e-07	4.9777533e-08	0.6328814	-1.145648e-16	0.22983114
5.015439314304546e-11	3.1012192e-07	2.3558732e-07	0.58638555	-1.1510905e-16	0.27400777
5.2572224676518385e-11	2.9372694e-07	2.0753808e-07	0.5646983	-1.1511771e-16	0.34219688
5.528563223765986e-11	1.8715957e-07	1.9700315e-07	0.55871093	-1.1381011e-16	0.5348194
5.7691935567160157e-11	4.2896907e-08	2.1028703e-07	0.55941767	-1.1267709e-16	0.6400414
6.009876792848397e-11	-7.8946115e-08	1.7448474e-07	0.5602573	-1.1186744e-16	0.68204325
6.250100387195554e-11	-1.4018038e-07	1.2645205e-07	0.5588949	-1.1126465e-16	0.6676111
6.520130302426176e-11	-1.656535e-07	9.9818436e-08	0.55432796	-1.1067967e-16	0.6315381
6.759634412566403e-11	-1.7892916e-07	9.4353446e-08	0.5481345	-1.10162227e-16	0.6268307
7.02943046565626e-11	-1.9535706e-07	8.539875e-08	0.5396108	-1.0956107e-16	0.62159896
7.269031760155833e-11	-2.0911831e-07	6.930007e-08	0.53141755	-1.09036904e-16	0.6592634
7.508875946673957e-11	-2.2781781e-07	5.5012073e-08	0.5233395	-1.08566066e-16	0.6996553
7.778458238079103e-11	-2.7746364e-07	4.069116e-08	0.5150774	-1.0816663e-16	0.7118982
8.018197509623672e-11	-3.622122e-07	5.892975e-09	0.5087953	-1.0798011e-16	0.7186101
8.257733965150338e-11	-4.7435157e-07	-8.427942e-08	0.50363153	-1.0799171e-16	0.7160553
8.52729543668185e-11	-5.7017e-07	-2.7489577e-07	0.4991127	-1.082621e-16	0.7144252
8.766804040275036e-11	-5.526886e-07	-5.00014e-07	0.49614963	-1.0871002e-16	0.7102597
9.006346256813312e-11	-4.1905966e-07	-7.316178e-07	0.49407077	-1.0930699e-16	0.7894701
9.275790910084248e-11	-1.9469863e-07	-9.694767e-07	0.49257135	-1.1009707e-16	0.91009694
9.51591198454804e-11	-1.6510207e-08	-1.1306611e-06	0.4916568	-1.1084438e-16	1.0888294
9.752468181795778e-11	8.493785e-08	-1.2051958e-06	0.4907987	-1.115531e-16	1.170863
1.0007693319650983e-10	8.9612726e-08	-1.3453925e-06	0.48962986	-1.1225879e-16	1.9753244
1.0252445163032578e-10	3.3711768e-08	-2.5651725e-06	0.48802215	-1.1326273e-16	1.3182416
1.0508938817737736e-10	-6.9166737e-07	-2.3363507e-06	0.4850533	-1.1415683e-16	2.2520976
1.0752910714107694e-10	-6.881941e-07	-9.3062914e-07	0.48263666	-1.151059e-16	1.8944448
1.1007931580364931e-10	-7.31124e-07	-5.438656e-07	0.48071364	-1.1682959e-16	0.7486659
1.1254644550652057e-10	-1.1605869e-06	-1.9140647e-07	0.47829092	-1.179199e-16	0.65241003
1.1527855377511938e-10	-1.5660828e-06	-1.3576887e-07	0.47626844	-1.18552e-16	0.61328816
1.1751175290721997e-10	-1.6029221e-06	-2.3631159e-07	0.47550756	-1.1887525e-16	0.5835975
1.2024117292746935e-10	-1.3390552e-06	-4.8292765e-07	0.4756963	-1.1912813e-16	0.59267485
1.2262998811281228e-10	-1.0355176e-06	-6.7469625e-07	0.47651517	-1.1928932e-16	0.5953021
1.2504712374292916e-10	-7.8534595e-07	-7.270417e-07	0.4776092	-1.1943638e-16	0.59334195
1.2773737280655473e-10	-5.877502e-07	-6.2597223e-07	0.47886723	-1.195978e-16	0.5888412
1.301474595443307e-10	-4.6268084e-07	-5.0989047e-07	0.47988713	-1.1974087e-16	0.58226377
1.3253967922000214e-10	-3.8044257e-07	-4.5458214e-07	0.48072892	-1.1987648e-16	0.57988113
1.3524500185758116e-10	-3.2855806e-07	-4.674874e-07	0.48145017	-1.2001578e-16	0.5787154
1.3763784542753256e-10	-3.0561165e-07	-5.001457e-07	0.48189545	-1.2012388e-16	0.5741586
1.4003972401560997e-10	-2.9201502e-07	-5.166065e-07	0.4821868	-1.2021863e-16	0.57225555
1.4273328454199556e-10	-2.8171056e-07	-5.0783905e-07	0.4823585	-1.203114e-16	0.5680569
1.4513321682529758e-10	-2.7647602e-07	-4.8717453e-07	0.48239303	-1.2038523e-16	0.56829226
1.4752769116569224e-10	-2.745007e-07	-4.661047e-07	0.48233092	-1.2045273e-16	0.5684728
1.5022460953268484e-10	-2.7249249e-07	-4.47934e-07	0.48216277	-1.2052269e-16	0.56803286
1.5261878409955965e-10	-2.6692874e-07	-4.3482913e-07	0.48194098	-1.2057967e-16	0.567259
1.5501463588122778e-10	-2.5519216e-07	-4.1948763e-07	0.48166275	-1.2063173e-16	0.56654465
1.5770852911056963e-10	-2.3627867e-07	-3.967717e-07	0.48129427	-1.2068412e-16	0.5658647
1.6010340802121803e-10	-2.1664091e-07	-3.697101e-07	0.4809257	-1.20725e-16	0.56522894
1.6279715492284883e-10	-1.9354637e-07	-3.3487902e-07	0.4804728	-1.2076465e-16	0.56455314
1.651911779721899e-10	-1.7397446e-07	-3.020232e-07	0.48004237	-1.2079455e-16	0.5640049
1.6758557875672313e-10	-1.5483052e-07	-2.7015506e-07	0.47959164	-1.2081979e-16	0.563502
1.7027804899333562e-10	-1.3445201e-07	-2.372334e-07	0.47906876	-1.2084323e-16	0.562978
1.7267175594125882e-10	-1.1721753e-07	-2.0957921e-07	0.47859755	-1.2086026e-16	0.5625859
1.7506480334395462e-10	-1.0087193e-07	-1.8442708e-07	0.4781278	-1.2087421e-16	0.56237835
1.7775756622110002e-10	-8.460864e-08	-1.587482e-07	0.47760898	-1.2088683e-16	0.56212467
1.8015025154764983e-10	-7.241117e-08	-1.3846845e-07	0.47716272	-1.208958e-16	0.5618849
1.8254366541790228e-10	-6.133303e-08	-1.2016402e-07	0.47673488	-1.20903e-16	0.5616352
1.8523548763524295e-10	-5.0699338e-08	-1.021888e-07	0.47628015	-1.2090944e-16	0.56134844
1.8762868843653068e-10	-4.250185e-08	-8.7769116e-08	0.47590196	-1.2091393e-16	0.5610904
1.9002121312108275e-10	-3.5654146e-08	-7.631238e-08	0.47555003	-1.209175e-16	0.560834
1.9271334196473592e-10	-2.8872286e-08	-6.459227e-08	0.47518587	-1.2092064e-16	0.5605504
1.9510605425568194e-10	-2.3901118e-08	-5.5374212e-08	0.47489047	-1.2092282e-16	0.5603077
1.9779792714154942e-10	-1.9275625e-08	-4.6880427e-08	0.47458902	-1.2092473e-16	0.560048
2.0019062675938344e-10	-1.5835314e-08	-3.998334e-08	0.47434732	-1.2092604e-16	0.55983007
2.025830932584476e-10	-1.2641913e-08	-3.4238514e-08	0.47412914	-1.2092704e-16	0.5596262
2.0527510039960824e-10	-1.0139868e-08	-2.8707678e-08	0.47390974	-1.2092794e-16	0.5594135
2.0766735470351435e-10	-7.917657e-09	-2.4954609e-08	0.47373623	-1.2092852e-16	0.55924064
2.100602899002935e-10	-6.3868e-09	-2.1728289e-08	0.47358137	-1.20929e-16	0.5590817
2.1275187083536654e-10	-4.559648e-09	-1.8041064e-08	0.47342733	-1.2092941e-16	0.5589187
2.1514436471347226e-10	-3.0287917e-09	-1.5473175e-08	0.4733067	-1.2092968e-16	0.5587861
2.1753714392768457e-10	-2.0246813e-09	-1.27736e-08	0.4731998	-1.2092987e-16	0.5586711
2.2022841288742928e-10	-1.0205711e-09	-1.1193361e-08	0.47309443	-1.2093005e-16	0.55860376
2.2262111312371633e-10	-7.571979e-10	-9.5472785e-09	0.47301245	-1.2093015e-16	0.5585475
2.2501356303435842e-10	1.2345618e-10	-8.296255e-09	0.47294027	-1.2093022e-16	0.558495
2.2770509720750954e-10	5.1028554e-10	-6.7818595e-09	0.47286946	-1.2093032e-16	0.5584404
2.300975964512647e-10	1.1934098e-09	-5.8435927e-09	0.47281465	-1.2093036e-16	0.5583958
2.327890111519619e-10	1.5143958e-09	-4.609031e-09	0.4727611	-1.2093039e-16	0.55835044
2.351814579576562e-10	1.9752988e-09	-4.1481276e-09	0.47271976	-1.209304e-16	0.5583133
2.3757399761805874e-10	2.2386721e-09	-3.753068e-09	0.47268358	-1.2093042e-16	0.5582797
2.402652896249956e-10	2.2386721e-09	-2.633732e-09	0.47264835	-1.2093044e-16	0.5582456
2.4265789626912744e-10	2.7983402e-09	-1.9094557e-09	0.47262126	-1.2093046e-16	0.55821896
2.450501140480711e-10	2.6831144e-09	-1.876534e-09	0.4725976	-1.2093046e-16	0.55819505
2.4774173578913474e-10	2.814801e-09	-1.876534e-09	0.47257468	-1.2093047e-16	0.5581712
2.501341143662531e-10	2.7654186e-09	-1.5802392e-09	0.472557	-1.2093046e-16	0.5581527
2.525264912746487e-10	2.9300267e-09	-5.925897e-10	0.4725416	-1.2093044e-16	0.5581365
2.5521786454113745e-10	2.7489577e-09	-8.39502e-10	0.4725267	-1.2093046e-16	0.55812097
2.576103463665026e-10	2.8312617e-09	-1.0534927e-09	0.4725153	-1.2093047e-16	0.5581086
2.600026077454225e-10	3.0287917e-09	-6.58433e-10	0.47250536	-1.2093044e-16	0.5580979
2.626940481893959e-10	3.358008e-09	-1.0534927e-09	0.47249573	-1.2093046e-16	0.5580868
2.6508644410294144e-10	3.473234e-09	-3.950598e-10	0.47248837	-1.2093044e-16	0.5580788
2.6777777608720473e-10	3.3909298e-09	-3.950598e-10	0.47248125	-1.2093046e-16	0.55807114
2.701701861017297e-10	3.358008e-09	-2.6337318e-10	0.47247577	-1.2093044e-16	0.5580652
2.725625023982641e-10	3.358008e-09	-2.6337318e-10	0.47247103	-1.2093044e-16	0.55805993
2.752537098149232e-10	3.7036854e-09	2.6337318e-10	0.47246653	-1.2093046e-16	0.55805415
2.7764607890733833e-10	3.2592433e-09	-3.950598e-10	0.47246295	-1.2093044e-16	0.5580504
2.80038413664463e-10	3.5884598e-09	-1.3168659e-10	0.4724599	-1.2093044e-16	0.5580464
2.827299153743686e-10	4.0493626e-09	-1.3168659e-10	0.47245693	-1.2093044e-16	0.5580438
2.851222270383948e-10	3.9835193e-09	-6.5843296e-11	0.47245473	-1.2093044e-16	0.55804116
2.875143804807428e-10	4.1481276e-09	-9.876495e-11	0.47245276	-1.2093044e-16	0.5580384
2.902059541232565e-10	4.213971e-09	-2.9629485e-10	0.47245088	-1.2093044e-16	0.5580357
2.925981051425191e-10	4.1645887e-09	1.975299e-10	0.47244945	-1.2093044e-16	0.5580339
2.9528955357007227e-10	4.1645887e-09	2.6337318e-10	0.47244805	-1.2093043e-16	0.55803275
2.976818856035181e-10	3.8024504e-09	9.876494e-10	0.47244698	-1.2093043e-16	0.5580314
3.0007400085124067e-10	3.6872247e-09	5.925897e-10	0.47244608	-1.2093043e-16	0.55802995
3.027656086593586e-10	3.6049206e-09	2.3045155e-10	0.4724451	-1.2093043e-16	0.55802834
3.0515776255384e-10	3.8024504e-09	-3.292165e-10	0.47244447	-1.2093043e-16	0.5580275
3.075499897415945e-10	3.835372e-09	4.9382474e-11	0.47244388	-1.2093044e-16	0.5580268
3.102411990302992e-10	4.016441e-09	-1.975299e-10	0.47244328	-1.2093043e-16	0.55802625
3.126335838509397e-10	4.0822843e-09	1.975299e-10	0.4724429	-1.2093043e-16	0.5580253
3.150259349452287e-10	4.1975103e-09	3.292165e-10	0.4724425	-1.2093043e-16	0.55802476
3.1771716756800015e-10	3.753068e-09	-6.5843296e-11	0.47244212	-1.2093043e-16	0.55802435
3.2010937962845215e-10	3.7695287e-09	1.3168659e-10	0.47244185	-1.2093043e-16	0.558024
3.225016422389526e-10	3.934137e-09	-1.3168659e-10	0.47244158	-1.2093043e-16	0.55802363
3.251930310633451e-10	3.9999803e-09	-5.5966803e-10	0.47244138	-1.2093042e-16	0.5580231
3.275851961206111e-10	4.255123e-09	3.292165e-10	0.47244117	-1.2093044e-16	0.5580225
3.3027647221846057e-10	4.39504e-09	1.975299e-10	0.472441	-1.2093043e-16	0.5580225
3.3266892828788295e-10	3.8682937e-09	0	0.47244093	-1.2093043e-16	0.5580224
3.350609241425761e-10	3.8847547e-09	-1.3168659e-10	0.47244072	-1.2093043e-16	0.5580224
3.3775234230627315e-10	3.934137e-09	-3.292165e-10	0.47244066	-1.2093043e-16	0.5580214
3.401447062999619e-10	3.9835193e-09	-3.292165e-10	0.47244057	-1.2093043e-16	0.5580214
3.425366802358067e-10	3.9505976e-09	3.950598e-10	0.47244048	-1.2093043e-16	0.5580214
3.452280876557815e-10	3.917676e-09	-1.3168659e-10	0.47244042	-1.2093043e-16	0.5580217
3.47620331360219e-10	3.5390773e-09	-1.6460824e-10	0.47244033	-1.2093043e-16	0.5580216
3.500125173388902e-10	3.5390773e-09	-2.6337318e-10	0.47244033	-1.2093042e-16	0.5580216
3.5270378097734793e-10	3.8847547e-09	-2.6337318e-10	0.47244027	-1.2093043e-16	0.5580206
3.5509606698742006e-10	3.8024504e-09	-3.950598e-10	0.4724402	-1.2093043e-16	0.5580206
3.5778728358225567e-10	3.4485428e-09	-2.6337318e-10	0.4724402	-1.2093043e-16	0.5580211
3.601794411776915e-10	3.753068e-09	-4.609031e-10	0.4724402	-1.2093043e-16	0.5580213
3.6257172398647064e-10	4.016441e-09	6.5843296e-11	0.47244015	-1.2093042e-16	0.5580213
3.6526294831478897e-10	3.7201462e-09	4.773639e-10	0.47244012	-1.2093043e-16	0.5580203
3.676551580500755e-10	3.4896948e-09	6.58433e-10	0.47244012	-1.2093043e-16	0.5580205
3.700472595019259e-10	3.8189114e-09	5.925897e-10	0.4724401	-1.2093043e-16	0.55802083
3.72738618604445e-10	4.016441e-09	0	0.4724401	-1.2093042e-16	0.5580211
3.7513064131911995e-10	4.0658237e-09	4.609031e-10	0.4724401	-1.2093043e-16	0.55802095
3.775229218831764e-10	4.1810493e-09	8.5596286e-10	0.4724401	-1.2093043e-16	0.55802083
3.802140704007649e-10	3.8847547e-09	1.316866e-09	0.4724401	-1.2093043e-16	0.55802083
3.826064959449685e-10	3.934137e-09	8.230412e-10	0.47244006	-1.2093042e-16	0.55802095
3.852974607343795e-10	4.115206e-09	7.901196e-10	0.47244003	-1.2093043e-16	0.55802095
3.8768974211501626e-10	4.213971e-09	1.0534927e-09	0.47244006	-1.2093043e-16	0.5580207
3.9008186531359363e-10	3.9999803e-09	4.609031e-10	0.47244003	-1.2093043e-16	0.5580203
3.9277311400941694e-10	4.312736e-09	1.0534927e-09	0.47244003	-1.2093043e-16	0.55802083
3.951653086454035e-10	4.230432e-09	8.5596286e-10	0.47244003	-1.2093043e-16	0.55802083
3.9755732218843103e-10	4.115206e-09	7.407371e-10	0.47244003	-1.2093043e-16	0.55802095
4.0024861667316027e-10	4.0658237e-09	5.2674637e-10	0.47244003	-1.2093043e-16	0.5580205
4.0264070957989857e-10	4.3785793e-09	4.773639e-10	0.47244003	-1.2093042e-16	0.5580202
4.050328854499502e-10	4.2798143e-09	5.925897e-10	0.47244003	-1.2093043e-16	0.5580202
4.0772405459062416e-10	4.1810493e-09	7.901196e-10	0.47244003	-1.2093043e-16	0.55802083
4.1011612112257887e-10	4.3456576e-09	1.975299e-10	0.47244003	-1.2093043e-16	0.55802095
4.1250841379786987e-10	4.1645887e-09	5.2674637e-10	0.47244003	-1.2093043e-16	0.558021
4.151993505439056e-10	4.493805e-09	0	0.47244003	-1.2093043e-16	0.5580202
4.175916652061568e-10	4.032902e-09	3.6213813e-10	0.47244003	-1.2093043e-16	0.5580202
4.202826024604492e-10	4.2798143e-09	8.5596286e-10	0.47244003	-1.2093044e-16	0.5580207
4.226750661121634e-10	4.1810493e-09	7.2427625e-10	0.47244003	-1.2093044e-16	0.5580211
4.250668422878207e-10	3.917676e-09	3.950598e-10	0.47244003	-1.2093044e-16	0.55802083
4.2775838068215507e-10	4.0987453e-09	1.3168659e-10	0.47244003	-1.2093042e-16	0.55801994
4.3015027272286307e-10	4.1481276e-09	2.6337318e-10	0.47244003	-1.2093043e-16	0.5580205
4.325425608675454e-10	4.1069756e-09	-3.7859896e-10	0.47244003	-1.2093043e-16	0.5580206
4.3523345576619144e-10	3.7119159e-09	2.6337318e-10	0.47244003	-1.2093043e-16	0.558021
4.3762580132174407e-10	3.7859897e-09	7.901196e-10	0.47244003	-1.2093043e-16	0.55802095
4.4001781212269456e-10	3.8189114e-09	-6.5843296e-11	0.47244003	-1.2093043e-16	0.5580206
4.4270899302208236e-10	4.230432e-09	1.975299e-10	0.47244003	-1.2093043e-16	0.5580206
4.451009961861991e-10	4.213971e-09	1.3168659e-10	0.47244003	-1.2093043e-16	0.55802083
4.477922725495405e-10	3.8847547e-09	1.3168659e-10	0.47244003	-1.2093044e-16	0.55802083
4.501841471949325e-10	4.0822843e-09	1.3168659e-10	0.47244003	-1.2093043e-16	0.55802095
4.525765631461629e-10	4.074054e-09	4.2798143e-10	0.47244003	-1.2093043e-16	0.5580206
4.5526741534494236e-10	4.1481276e-09	3.292165e-10	0.47244003	-1.2093043e-16	0.55802095
4.5765963159276435e-10	4.5843396e-09	2.6337318e-10	0.47244003	-1.2093044e-16	0.55802095
4.600517328888157e-10	4.4773443e-09	1.975299e-10	0.47244003	-1.2093043e-16	0.5580207
4.627428321223081e-10	4.2962753e-09	4.609031e-10	0.47244003	-1.2093043e-16	0.5580205
4.6513478327721506e-10	4.1481276e-09	6.58433e-10	0.47244003	-1.2093043e-16	0.5580202
4.675269732166412e-10	4.2633537e-09	3.292165e-10	0.47244003	-1.2093043e-16	0.55802006
4.702179570282352e-10	4.312736e-09	2.6337318e-10	0.47244003	-1.2093043e-16	0.55802095
4.72610298537765e-10	3.9835193e-09	3.292165e-10	0.47244003	-1.2093043e-16	0.55802095
4.750023018740728e-10	3.9835193e-09	5.2674637e-10	0.47244003	-1.2093043e-16	0.55802095
4.776934322008428e-10	3.753068e-09	6.58433e-10	0.47244003	-1.2093043e-16	0.55802006
4.800855453870389e-10	3.8024504e-09	3.950598e-10	0.47244003	-1.2093043e-16	0.55802006
4.827766778502711e-10	3.934137e-09	5.925897e-10	0.47244003	-1.2093043e-16	0.55802095
4.851686406638784e-10	3.8682937e-09	6.58433e-10	0.47244003	-1.2093043e-16	0.5580211
4.875607112500809e-10	3.851833e-09	4.609031e-10	0.47244003	-1.2093043e-16	0.558021
4.90251733559073e-10	3.9505976e-09	1.3168659e-10	0.47244003	-1.2093044e-16	0.55801994
4.926439399506103e-10	3.670764e-09	4.9382474e-11	0.47244003	-1.2093043e-16	0.5580203
4.950359503857547e-10	3.934137e-09	1.975299e-10	0.47244003	-1.2093043e-16	0.5580205
4.977271380589587e-10	4.0987453e-09	-1.3168659e-10	0.47244003	-1.2093043e-16	0.558021
5.001190329974406e-10	3.8847547e-09	3.292165e-10	0.47244003	-1.2093044e-16	0.5580211
5.025112859355927e-10	3.4403123e-09	1.975299e-10	0.47244003	-1.2093043e-16	0.55802095
5.052022341866008e-10	3.851833e-09	1.975299e-10	0.47244003	-1.2093043e-16	0.5580205
5.075942728402281e-10	3.917676e-09	-2.6337318e-10	0.47244003	-1.2093043e-16	0.55802083
5.102854534232414e-10	4.1810493e-09	0	0.47244003	-1.2093043e-16	0.55802095
5.126774986853773e-10	3.9835193e-09	1.975299e-10	0.47244003	-1.2093043e-16	0.55802083
5.150695632509777e-10	4.0822843e-09	2.6337318e-10	0.47244003	-1.2093042e-16	0.5580206
5.177605949781757e-10	3.9999803e-09	-3.2921648e-11	0.47244003	-1.2093043e-16	0.55802083
5.201526084099726e-10	3.9835193e-09	3.292165e-10	0.47244003	-1.2093043e-16	0.55802095
5.225448361601768e-10	3.99175e-09	5.2674637e-10	0.47244003	-1.2093043e-16	0.55802095
5.25235858041867e-10	4.1481276e-09	2.7983402e-10	0.47244003	-1.2093043e-16	0.5580206
5.276279581796658e-10	3.9505976e-09	6.58433e-10	0.47244003	-1.2093044e-16	0.5580204
5.300197726365838e-10	4.032902e-09	5.925897e-10	0.47244003	-1.2093044e-16	0.55802006
5.327110482053444e-10	3.753068e-09	3.292165e-10	0.47244003	-1.2093043e-16	0.55802095
5.351028714791989e-10	3.2921648e-09	5.2674637e-10	0.47244003	-1.2093043e-16	0.55802083
5.377940860937772e-10	3.917676e-09	5.2674637e-10	0.47244003	-1.2093044e-16	0.5580203
5.4018607540977e-10	4.1975103e-09	4.609031e-10	0.47244003	-1.2093042e-16	0.55802006
5.425782043662769e-10	4.230432e-09	9.547279e-10	0.47244003	-1.2093043e-16	0.55801994
5.45269318471064e-10	3.8189114e-09	1.0534927e-09	0.47244003	-1.2093043e-16	0.55802083
5.47661179551275e-10	3.4238514e-09	6.58433e-10	0.47244003	-1.2093043e-16	0.5580211
5.500535184459936e-10	3.7036854e-09	4.609031e-10	0.47244003	-1.2093043e-16	0.5580211
5.527443975307612e-10	3.9012154e-09	3.950598e-10	0.47244003	-1.2093042e-16	0.5580198
5.551365783886303e-10	4.0493626e-09	4.115206e-10	0.47244003	-1.2093043e-16	0.55801994
5.575282863357698e-10	3.8847547e-09	4.609031e-10	0.47244003	-1.2093043e-16	0.5580204
5.60219638796012e-10	3.7695287e-09	1.975299e-10	0.47244003	-1.2093043e-16	0.558021
5.626115851941333e-10	3.9835193e-09	1.0534927e-09	0.47244003	-1.2093043e-16	0.5580213
5.650035823074897e-10	4.016441e-09	5.925897e-10	0.47244003	-1.2093043e-16	0.55802095
5.676947410724813e-10	3.7201462e-09	5.2674637e-10	0.47244003	-1.2093043e-16	0.5580205
5.70086859610987e-10	3.9505976e-09	4.609031e-10	0.47244003	-1.2093044e-16	0.55802083
5.72777823120249e-10	3.9423673e-09	8.5596286e-10	0.47244003	-1.2093043e-16	0.5580214
5.75170014287705e-10	3.9835193e-09	8.5596286e-10	0.47244003	-1.2093043e-16	0.55802095
5.775618540850458e-10	3.654303e-09	7.901196e-10	0.47244003	-1.2093043e-16	0.55802095
5.802530423254921e-10	3.6049206e-09	5.2674637e-10	0.47244003	-1.2093043e-16	0.5580207
5.826449321589226e-10	3.654303e-09	8.5596286e-10	0.47244003	-1.2093043e-16	0.5580211
5.850370949122823e-10	3.3250864e-09	1.975299e-10	0.47244003	-1.2093043e-16	0.558021
5.877281071320331e-10	3.6872247e-09	1.6460824e-10	0.47244003	-1.2093043e-16	0.5580207
5.901200790662776e-10	3.9835193e-09	6.5843296e-11	0.47244003	-1.2093043e-16	0.5580205
5.925121521375715e-10	4.115206e-09	1.975299e-10	0.47244003	-1.2093043e-16	0.5580202
5.95203176837785e-10	4.213971e-09	3.950598e-10	0.47244003	-1.2093043e-16	0.5580211
5.975952902176033e-10	4.0246717e-09	5.2674637e-10	0.47244003	-1.2093042e-16	0.5580207
6.002863042474174e-10	3.917676e-09	7.2427625e-10	0.47244003	-1.2093043e-16	0.5580206
6.026783658814886e-10	3.851833e-09	1.0534927e-09	0.47244003	-1.2093044e-16	0.5580203
6.050704859770752e-10	3.3415473e-09	5.2674637e-10	0.47244003	-1.2093043e-16	0.55802006
6.077613289571332e-10	3.851833e-09	6.58433e-10	0.47244003	-1.2093043e-16	0.55802083
6.101535256650613e-10	4.0822843e-09	3.950598e-10	0.47244003	-1.2093043e-16	0.55802083
6.12545521746924e-10	4.0658237e-09	1.975299e-10	0.47244003	-1.2093043e-16	0.558021
6.152366273244179e-10	4.1481276e-09	5.2674637e-10	0.47244003	-1.2093044e-16	0.55802006
6.17628503669155e-10	4.115206e-09	1.6460824e-10	0.47244003	-1.2093043e-16	0.55801994
6.200207057861201e-10	4.312736e-09	1.3168659e-10	0.47244003	-1.2093043e-16	0.5580202
6.227115550122547e-10	4.312736e-09	2.6337318e-10	0.47244003	-1.2093043e-16	0.55802095
6.251038580272974e-10	3.9670587e-09	4.609031e-10	0.47244003	-1.2093044e-16	0.5580211
6.277946462281734e-10	3.835372e-09	4.609031e-10	0.47244003	-1.2093043e-16	0.5580198
6.301869059686177e-10	3.8847547e-09	8.230412e-10	0.47244003	-1.2093043e-16	0.5580202
6.325786329256003e-10	3.7695287e-09	5.925897e-10	0.47244003	-1.2093043e-16	0.5580206
6.352698179692452e-10	3.835372e-09	3.292165e-10	0.47244003	-1.2093043e-16	0.5580214
6.376616741717352e-10	3.753068e-09	2.9629485e-10	0.47244003	-1.2093044e-16	0.5580213
6.400539023058914e-10	3.753068e-09	8.724237e-10	0.47244003	-1.2093043e-16	0.55802095
6.427447302515402e-10	3.917676e-09	4.609031e-10	0.47244003	-1.2093043e-16	0.5580207
6.451369098452586e-10	3.3415473e-09	1.3168659e-10	0.47244003	-1.2093044e-16	0.558021
6.475288138891231e-10	3.917676e-09	2.4691235e-10	0.47244003	-1.2093043e-16	0.5580211
6.502200930714116e-10	3.9670587e-09	1.8106906e-10	0.47244003	-1.2093042e-16	0.558021
6.526118226681359e-10	4.329197e-09	1.3168659e-10	0.47244003	-1.2093043e-16	0.5580207
6.550041672911321e-10	4.3621182e-09	-2.6337318e-10	0.47244003	-1.2093042e-16	0.5580203
6.576949727006603e-10	4.5761093e-09	-1.975299e-10	0.47244003	-1.2093043e-16	0.558021
6.600872385036755e-10	4.5431876e-09	3.2921648e-11	0.47244003	-1.2093043e-16	0.5580207
6.627780529904546e-10	4.0822843e-09	8.5596286e-10	0.47244003	-1.2093043e-16	0.5580207
6.651702198153286e-10	4.0987453e-09	2.6337318e-10	0.47244003	-1.2093042e-16	0.5580204
6.675621149249337e-10	4.0822843e-09	9.876495e-11	0.47244003	-1.2093043e-16	0.55802006
6.702532291768206e-10	4.0658237e-09	3.950598e-10	0.47244003	-1.2093043e-16	0.55802095
6.726451813985935e-10	4.1892796e-09	5.2674637e-10	0.47244003	-1.2093043e-16	0.55802083
6.750371959097389e-10	4.115206e-09	1.0534927e-09	0.47244003	-1.2093043e-16	0.558021
6.777281669784932e-10	4.115206e-09	5.2674637e-10	0.47244003	-1.2093043e-16	0.55801994
6.801204447461361e-10	4.1481276e-09	7.901196e-10	0.47244003	-1.2093043e-16	0.55802006
6.825123098004009e-10	4.0822843e-09	6.58433e-10	0.47244003	-1.2093044e-16	0.55802006
6.852033304115475e-10	4.1645887e-09	9.547279e-10	0.47244003	-1.2093043e-16	0.558021
6.875954674395807e-10	3.7201462e-09	5.2674637e-10	0.47244003	-1.2093043e-16	0.5580211
6.902864293298003e-10	4.2962753e-09	3.292165e-10	0.47244003	-1.2093043e-16	0.5580198
6.926785766620989e-10	3.851833e-09	3.292165e-10	0.47244003	-1.2093043e-16	0.5580202
6.950703865770862e-10	4.016441e-09	3.950598e-10	0.47244003	-1.2093043e-16	0.5580204
6.97761614496345e-10	4.0658237e-09	1.975299e-10	0.47244003	-1.2093043e-16	0.5580213
7.0015337931663e-10	4.115206e-09	-1.975299e-10	0.47244003	-1.2093043e-16	0.5580211
7.025456765621869e-10	4.1975103e-09	2.6337318e-10	0.47244003	-1.2093043e-16	0.558021
7.052364022154755e-10	3.99175e-09	3.950598e-10	0.47244003	-1.2093043e-16	0.5580205
7.076288314426906e-10	4.0822843e-09	4.609031e-10	0.47244003	-1.2093043e-16	0.55802083
7.100205642256447e-10	3.9999803e-09	5.2674637e-10	0.47244003	-1.2093043e-16	0.55802095
7.127117149039109e-10	3.8847547e-09	6.58433e-10	0.47244003	-1.2093043e-16	0.5580211
7.151035122377789e-10	3.753068e-09	3.292165e-10	0.47244003	-1.2093043e-16	0.55802083
7.177948067697921e-10	3.6872247e-09	2.6337318e-10	0.47244003	-1.2093043e-16	0.55802083
7.201865702533382e-10	4.0493626e-09	3.950598e-10	0.47244003	-1.2093043e-16	0.55802095
7.225788842989858e-10	3.9835193e-09	6.5843296e-11	0.47244003	-1.2093043e-16	0.55802095
7.252697265062138e-10	3.9505976e-09	5.2674637e-10	0.47244003	-1.2093044e-16	0.5580207
7.276619916447318e-10	3.7859897e-09	4.2798143e-10	0.47244003	-1.2093043e-16	0.5580205
7.30053750726394e-10	3.6872247e-09	0	0.47244003	-1.2093043e-16	0.5580203
7.327448549739643e-10	3.7695287e-09	6.5843296e-11	0.47244003	-1.2093043e-16	0.55802083
7.35136857659113e-10	3.9505976e-09	1.975299e-10	0.47244003	-1.2093044e-16	0.55802083
7.375289254723392e-10	3.934137e-09	2.4691235e-10	0.47244003	-1.2093043e-16	0.5580211
7.402199656650072e-10	4.2798143e-09	-4.773639e-10	0.47244003	-1.2093043e-16	0.55802006
7.426118367234787e-10	4.213971e-09	-4.609031e-10	0.47244003	-1.2093044e-16	0.55801994
7.450040704923126e-10	4.2798143e-09	1.3168659e-10	0.47244003	-1.2093043e-16	0.55802006
7.476949171031891e-10	3.934137e-09	3.292165e-10	0.47244003	-1.2093043e-16	0.558021
7.500871541497075e-10	3.851833e-09	-1.3168659e-10	0.47244003	-1.2093043e-16	0.5580211
7.527778904498959e-10	3.9670587e-09	1.3168659e-10	0.47244003	-1.2093043e-16	0.55802006
7.551702675319952e-10	3.9670587e-09	1.4814742e-10	0.47244003	-1.2093043e-16	0.55802006
7.575619597145928e-10	3.670764e-09	3.950598e-10	0.47244003	-1.2093044e-16	0.5580202
7.602533144973287e-10	3.3086256e-09	4.2798143e-10	0.47244003	-1.2093043e-16	0.5580213
7.626450098276909e-10	3.473234e-09	-5.2674637e-10	0.47244003	-1.2093043e-16	0.5580214
7.650372009036939e-10	3.8847547e-09	-3.292165e-10	0.47244003	-1.2093043e-16	0.5580213
7.677280516641861e-10	3.5802292e-09	3.950598e-10	0.47244003	-1.2093043e-16	0.5580205
7.701202745266251e-10	4.1481276e-09	3.292165e-10	0.47244003	-1.2093043e-16	0.5580207
7.725121900153402e-10	3.7859897e-09	3.950598e-10	0.47244003	-1.2093043e-16	0.55802095
7.7520340456429e-10	3.9835193e-09	3.292165e-10	0.47244003	-1.2093044e-16	0.558021
7.775952696335593e-10	3.8189114e-09	3.292165e-10	0.47244003	-1.2093043e-16	0.55802083
7.802864293476327e-10	3.9835193e-09	5.2674637e-10	0.47244003	-1.2093043e-16	0.5580206
7.82678369561054e-10	3.8189114e-09	3.6213813e-10	0.47244003	-1.2093043e-16	0.558021
7.850702890572149e-10	3.7201462e-09	4.609031e-10	0.47244003	-1.2093043e-16	0.55802095
7.877615445381632e-10	3.9505976e-09	1.3168659e-10	0.47244003	-1.2093043e-16	0.5580207
7.901534458167303e-10	4.0822843e-09	3.950598e-10	0.47244003	-1.2093043e-16	0.5580206
7.925455756985444e-10	3.753068e-09	1.975299e-10	0.47244003	-1.2093043e-16	0.5580205
7.952365288875212e-10	3.753068e-09	7.2427625e-10	0.47244003	-1.2093043e-16	0.5580213
7.976285288767571e-10	4.1481276e-09	4.609031e-10	0.47244003	-1.2093043e-16	0.558021
8.00020432096524e-10	4.0987453e-09	1.3168659e-10	0.47244003	-1.2093043e-16	0.55802095
8.027114674462242e-10	4.0822843e-09	1.975299e-10	0.47244003	-1.2093043e-16	0.5580203
8.051036828641006e-10	3.6872247e-09	1.3168659e-10	0.47244003	-1.2093043e-16	0.5580202
8.077946297740968e-10	3.8682937e-09	3.292165e-10	0.47244003	-1.2093043e-16	0.55802083
8.10186624830898e-10	3.8847547e-09	3.292165e-10	0.47244003	-1.2093043e-16	0.55802095
8.125786213235904e-10	3.8847547e-09	4.609031e-10	0.47244003	-1.2093043e-16	0.558021
8.152695745097077e-10	4.213971e-09	5.5966803e-10	0.47244003	-1.2093042e-16	0.55802006
8.176616982502644e-10	4.016441e-09	3.292165e-10	0.47244003	-1.2093044e-16	0.55802006
8.200537673818547e-10	3.9835193e-09	4.609031e-10	0.47244003	-1.2093043e-16	0.5580202
8.22744660451349e-10	3.9670587e-09	2.6337318e-10	0.47244003	-1.2093043e-16	0.5580213
8.2513682787372e-10	3.9999803e-09	3.950598e-10	0.47244003	-1.2093043e-16	0.5580211
8.275287020849948e-10	3.7695287e-09	-9.876495e-11	0.47244003	-1.2093043e-16	0.5580211
8.302199176859833e-10	4.0987453e-09	6.5843296e-11	0.47244003	-1.2093043e-16	0.55802006
8.326117094846754e-10	4.016441e-09	1.3168659e-10	0.47244003	-1.2093044e-16	0.5580205
8.350038681499108e-10	4.0658237e-09	5.2674637e-10	0.47244003	-1.2093043e-16	0.55802095
8.376948766177203e-10	4.1975103e-09	1.975299e-10	0.47244003	-1.2093043e-16	0.5580214
8.400869797945566e-10	3.7201462e-09	2.6337318e-10	0.47244003	-1.2093043e-16	0.558021
8.427778418914879e-10	3.9835193e-09	3.292165e-10	0.47244003	-1.2093043e-16	0.5580204
8.451700251681101e-10	4.213971e-09	5.925897e-10	0.47244003	-1.2093042e-16	0.55802095
8.47561899708841e-10	4.1645887e-09	3.950598e-10	0.47244003	-1.2093043e-16	0.55802083
8.502529889727241e-10	4.1975103e-09	1.975299e-10	0.47244003	-1.2093043e-16	0.5580211
8.526450217284768e-10	4.3456576e-09	3.292165e-10	0.47244003	-1.2093043e-16	0.55802083
8.550370669235214e-10	4.1645887e-09	1.975299e-10	0.47244003	-1.2093043e-16	0.5580204
8.577281582797194e-10	3.8189114e-09	2.6337318e-10	0.47244003	-1.2093044e-16	0.5580211
8.601201199527498e-10	4.0822843e-09	2.6337318e-10	0.47244003	-1.2093043e-16	0.558021
8.625120410124103e-10	3.8682937e-09	0	0.47244003	-1.2093044e-16	0.5580206
8.652030607931273e-10	3.8847547e-09	6.5843296e-11	0.47244003	-1.2093043e-16	0.5580204
8.675951753589908e-10	3.6213814e-09	1.3168659e-10	0.47244003	-1.2093043e-16	0.55802006
8.70286073711466e-10	3.7695287e-09	1.3168659e-10	0.47244003	-1.2093043e-16	0.55802095