# t (s)	mx ()	my ()	mz ()	E_total (J)	MaxAngle (rad)
0	1.0041102e-09	4.2798143e-10	0.97953606	-2.072577e-17	0.2662729
2.5287131808889664e-12	1.4238613e-09	8.230412e-10	0.9781121	-2.0720707e-17	0.25816306
5.0068181884767085e-12	9.917647e-10	1.2839443e-09	0.97741485	-2.071407e-17	0.2545895
7.529255498084665e-12	4.609031e-10	1.6460824e-09	0.9772543	-2.0706998e-17	0.2541176
1.0000694463435854e-11	-3.4567732e-10	1.679004e-09	0.9776516	-2.0700809e-17	0.25480312
1.2520914185063286e-11	-4.938247e-10	6.58433e-10	0.9786306	-2.0696046e-17	0.25967437
1.5040708532066654e-11	3.2921648e-11	1.975299e-10	0.9801104	-2.0693321e-17	0.26560047
1.7510801173190052e-11	9.547279e-10	2.3045155e-10	0.9818933	-2.0692777e-17	0.27651674
2.0030060605133273e-11	1.1851794e-09	6.58433e-10	0.98385704	-2.0694246e-17	0.29204813
2.2549119540743044e-11	7.571979e-10	9.218062e-10	0.98577726	-2.0697406e-17	0.31552485
2.5018601173657226e-11	4.2798143e-10	8.5596286e-10	0.98746216	-2.0701608e-17	0.3494964
2.7537358969584873e-11	4.19751e-10	3.292165e-10	0.98886347	-2.070636e-17	0.39780065
3.000664466145352e-11	1.4814742e-10	5.925897e-10	0.98986226	-2.0710895e-17	0.45609742
3.252523909454259e-11	5.555528e-10	4.609031e-10	0.99047965	-2.0714998e-17	0.50885564
3.504377150476107e-11	7.901196e-10	8.5596286e-10	0.9907058	-2.0718543e-17	0.53077245
3.7512872262568535e-11	6.5020256e-10	1.6460824e-09	0.9905748	-2.0721687e-17	0.5156979
4.0031276186616246e-11	-3.6625333e-10	1.9752988e-09	0.99011946	-2.0724719e-17	0.47251305
4.250024285319635e-11	-1.0493776e-09	6.58433e-10	0.9894112	-2.0727447e-17	0.42134315
4.501853835839264e-11	-3.415621e-10	-5.925897e-10	0.98850065	-2.0729679e-17	0.37887955
4.753679181839433e-11	7.7777396e-10	-9.218062e-10	0.98749816	-2.0731039e-17	0.34904286
5.000563345739368e-11	1.497935e-09	-2.6337318e-10	0.98652756	-2.0731346e-17	0.32801092
5.252382087845073e-11	1.0349743e-09	7.2427625e-10	0.98564553	-2.0730623e-17	0.3130008
5.5041996286711676e-11	4.6501827e-10	9.218062e-10	0.98494875	-2.0729037e-17	0.30359304
5.751077878220067e-11	-8.230412e-12	0	0.9844936	-2.0726926e-17	0.29914075
6.002893731468142e-11	4.032902e-10	-6.5843296e-11	0.98428184	-2.072456e-17	0.29692984
6.254707499875307e-11	8.724237e-10	1.3168659e-10	0.9843186	-2.0722299e-17	0.29728836
6.501583023038596e-11	7.9835e-10	2.6337318e-10	0.98456883	-2.0720433e-17	0.29981068
6.753395901367861e-11	1.1851794e-09	7.901196e-10	0.98499805	-2.0719071e-17	0.30388042
7.000271075740744e-11	7.078154e-10	5.925897e-10	0.9855357	-2.0718345e-17	0.31125873
7.252082374692966e-11	6.4197214e-10	7.2427625e-10	0.98614407	-2.0718226e-17	0.32170975
7.503894394742819e-11	6.090505e-10	7.2427625e-10	0.9867538	-2.0718654e-17	0.331811
7.750767389607704e-11	4.2798143e-10	6.58433e-10	0.9873017	-2.0719493e-17	0.34429064
8.002578137090957e-11	4.115206e-11	3.950598e-10	0.9877672	-2.0720644e-17	0.35704538
8.254387667315804e-11	4.115206e-10	2.6337318e-10	0.98810863	-2.0721945e-17	0.3665442
8.501259922915364e-11	9.79419e-10	3.950598e-10	0.9883073	-2.0723265e-17	0.37207973
8.753069203235709e-11	1.0041102e-09	4.609031e-10	0.98836875	-2.0724562e-17	0.37394005
9.004878379761549e-11	1.3004051e-09	4.609031e-10	0.98829705	-2.0725748e-17	0.37164813
9.251749789422004e-11	1.139912e-09	5.2674637e-10	0.9881163	-2.0726727e-17	0.3664823
9.503558955447616e-11	9.547279e-10	6.58433e-10	0.98784626	-2.072749e-17	0.35884568
9.750430842239062e-11	1.8518427e-10	7.901196e-10	0.9875289	-2.0727962e-17	0.34999913
1.0002237803459578e-10	1.975299e-10	1.3168659e-10	0.9871858	-2.072813e-17	0.34062833
1.0254046703466964e-10	8.271564e-10	2.6337318e-10	0.98685634	-2.0727988e-17	0.33342364
1.0500917464296804e-10	1.4156308e-09	4.609031e-10	0.9865748	-2.0727581e-17	0.32884878
1.0752726245101096e-10	1.0493776e-09	9.218062e-10	0.98635215	-2.0726959e-17	0.32514295
1.100453416461285e-10	5.7612887e-10	7.2427625e-10	0.9862087	-2.0726213e-17	0.32272562
1.1251404560045877e-10	3.4567732e-10	7.901196e-10	0.9861497	-2.0725445e-17	0.32173353
1.1503211863892338e-10	1.5226262e-10	4.609031e-10	0.98617035	-2.0724714e-17	0.32209167
1.17500832844139e-10	3.4567732e-10	-3.292165e-10	0.98625994	-2.072411e-17	0.32361525
1.200189091582922e-10	9.1357577e-10	6.5843296e-11	0.9864066	-2.0723659e-17	0.32608634
1.225369886474082e-10	3.374469e-10	2.6337318e-10	0.9865906	-2.0723402e-17	0.32913968
1.2500569541409674e-10	8.230412e-10	0	0.98678744	-2.0723336e-17	0.33234453
1.2752378030199328e-10	1.0205711e-09	3.292165e-10	0.9869858	-2.0723447e-17	0.33553943
1.300418674439418e-10	1.1357969e-09	6.58433e-10	0.9871643	-2.0723703e-17	0.34030402
1.3251057982878275e-10	5.555528e-10	3.950598e-10	0.9873067	-2.0724056e-17	0.3441398
1.3502864800249262e-10	5.843593e-10	7.2427625e-10	0.9874096	-2.0724483e-17	0.34691998
1.375467348472913e-10	6.090505e-10	3.292165e-10	0.98746467	-2.072493e-17	0.34840602
1.4001543918727388e-10	4.979399e-10	3.292165e-10	0.98747253	-2.0725353e-17	0.34859556
1.4253351962427723e-10	7.6542833e-10	7.2427625e-10	0.98743725	-2.0725738e-17	0.347606
1.4500223845816025e-10	6.58433e-10	3.950598e-10	0.9873678	-2.0726041e-17	0.34568426
1.4752031879580967e-10	8.18926e-10	2.6337318e-10	0.9872707	-2.072626e-17	0.34303412
1.500384014621629e-10	8.641933e-10	2.6337318e-10	0.98715913	-2.0726368e-17	0.34000638
1.5250709698102602e-10	1.1357969e-09	1.3168659e-10	0.9870463	-2.0726373e-17	0.33698153
1.5502519155055883e-10	9.876494e-10	5.2674637e-10	0.9869387	-2.0726284e-17	0.3347475
1.575432661178447e-10	1.0699536e-09	9.218062e-10	0.9868474	-2.0726114e-17	0.33329505
1.6001198116936086e-10	5.514376e-10	9.876494e-10	0.9867803	-2.0725894e-17	0.33221737
1.6253005666236047e-10	3.7859896e-10	5.2674637e-10	0.98673844	-2.072564e-17	0.33154252
1.6504812741924362e-10	3.2098607e-10	3.292165e-10	0.9867246	-2.072538e-17	0.3313192
1.675168289812415e-10	5.514376e-10	-1.3168659e-10	0.9867367	-2.0725151e-17	0.33151686
1.700349258756102e-10	8.847693e-10	1.3168659e-10	0.9867716	-2.0724956e-17	0.332081
1.7250361873584874e-10	1.2839443e-09	3.950598e-10	0.9868224	-2.0724822e-17	0.33290073
1.7502170777796545e-10	1.0905296e-09	1.1851794e-09	0.98688513	-2.0724742e-17	0.33390355
1.7753978767842642e-10	4.2798143e-10	1.3827093e-09	0.98695207	-2.0724729e-17	0.3349628
1.8000848680120138e-10	6.172809e-11	5.2674637e-10	0.9870154	-2.0724767e-17	0.33624813
1.8252656360544857e-10	-3.539077e-10	1.3168659e-10	0.98707247	-2.0724858e-17	0.33776605
1.8504464486201296e-10	2.7983402e-10	-3.292165e-10	0.9871173	-2.0724982e-17	0.33896393
1.8751335641380388e-10	9.547279e-10	-1.3168659e-10	0.987147	-2.0725121e-17	0.33975285
1.9003143675882927e-10	1.1934098e-09	1.975299e-10	0.98716134	-2.0725272e-17	0.34013057
1.9250013954258084e-10	7.9835e-10	5.925897e-10	0.9871602	-2.072541e-17	0.34009075
1.950182211544579e-10	6.4197214e-10	9.218062e-10	0.98714507	-2.0725533e-17	0.33967736
1.9753629086514496e-10	1.975299e-10	7.2427625e-10	0.9871187	-2.0725629e-17	0.3389632
2.00004987110082e-10	4.9382474e-11	5.2674637e-10	0.9870853	-2.0725687e-17	0.33806416
2.025230718492429e-10	-4.9382474e-11	-6.5843296e-11	0.9870475	-2.0725713e-17	0.3370475
2.050411504326274e-10	6.4608735e-10	-3.292165e-10	0.9870093	-2.0725703e-17	0.33603165
2.0750984730297238e-10	1.5720087e-09	2.6337318e-10	0.98697525	-2.0725665e-17	0.33532614
2.1002793505455365e-10	1.2839443e-09	9.218062e-10	0.98694646	-2.0725601e-17	0.33487284
2.1254600796469803e-10	6.9958506e-10	7.901196e-10	0.98692566	-2.0725525e-17	0.3345457
2.1501470452564936e-10	4.938247e-10	7.2427625e-10	0.9869144	-2.0725439e-17	0.33436486
2.1753277605884436e-10	2.9629485e-10	2.9629485e-10	0.98691183	-2.0725354e-17	0.3343258
2.200014722380592e-10	4.8559434e-10	-1.3168659e-10	0.9869177	-2.072528e-17	0.33441913
2.225195433582397e-10	8.39502e-10	-1.3168659e-10	0.9869307	-2.072522e-17	0.3346261
2.2503762732055096e-10	1.1851794e-09	4.609031e-10	0.9869491	-2.0725179e-17	0.334916
2.275063204722069e-10	6.58433e-10	6.58433e-10	0.98697	-2.0725157e-17	0.3352464
2.30024382262529e-10	-4.115206e-12	6.58433e-10	0.9869923	-2.0725157e-17	0.33561003
2.3254246318741523e-10	4.115206e-11	5.2674637e-10	0.9870133	-2.0725172e-17	0.3361688
2.3501116376086805e-10	1.2345618e-10	1.3168659e-10	0.98703104	-2.0725205e-17	0.3366403
2.37529236204563e-10	4.5267268e-10	-6.5843296e-11	0.98704493	-2.0725248e-17	0.33700675
2.400473067478001e-10	8.024652e-10	-1.975299e-10	0.9870537	-2.07253e-17	0.33723757
2.4251600965865313e-10	1.1357969e-09	0	0.987057	-2.0725348e-17	0.33732423
2.4503407075177924e-10	7.8188916e-10	6.255113e-10	0.98705536	-2.0725389e-17	0.3372772
2.4750277617047916e-10	5.432072e-10	7.901196e-10	0.98704934	-2.072543e-17	0.3371154
2.5002084420073205e-10	4.773639e-10	5.2674637e-10	0.9870398	-2.0725455e-17	0.3368591
2.525389260377544e-10	7.2427625e-10	2.6337318e-10	0.98702806	-2.0725477e-17	0.33654281
2.550076069780952e-10	5.020551e-10	3.950598e-10	0.9870154	-2.072548e-17	0.33620855
2.575256877763737e-10	5.349768e-10	3.292165e-10	0.987003	-2.0725477e-17	0.33587524
2.600437545229174e-10	7.571979e-10	5.2674637e-10	0.9869918	-2.0725457e-17	0.33558705
2.625124537068633e-10	7.7365875e-10	3.950598e-10	0.98698294	-2.0725437e-17	0.3354491
2.65030533362602e-10	8.353868e-10	7.2427625e-10	0.9869768	-2.0725407e-17	0.3353522
2.6754860033645674e-10	4.4032705e-10	4.609031e-10	0.98697364	-2.0725382e-17	0.3353035
2.700172898321078e-10	4.4855747e-10	3.292165e-10	0.9869736	-2.0725353e-17	0.33530188
2.7253535460871794e-10	6.0082006e-10	3.950598e-10	0.9869762	-2.072533e-17	0.33534336
2.750040488035652e-10	1.176949e-09	0	0.986981	-2.0725311e-17	0.33541796
2.775221225058491e-10	1.218101e-09	6.58433e-10	0.9869874	-2.0725296e-17	0.3355188
2.800401878780835e-10	8.888845e-10	1.0534927e-09	0.9869947	-2.0725293e-17	0.33566505
2.825088753159749e-10	5.1028554e-10	9.218062e-10	0.98700184	-2.0725293e-17	0.33585697
2.850269544721891e-10	3.6213813e-10	5.2674637e-10	0.98700863	-2.0725303e-17	0.33603817
2.8754501847219384e-10	2.3868196e-10	5.2674637e-10	0.9870144	-2.0725313e-17	0.33618942
2.9001371723716375e-10	5.925897e-10	2.6337318e-10	0.98701847	-2.0725326e-17	0.33629835
2.92531784014919e-10	1.1111057e-09	6.5843296e-11	0.98702097	-2.0725344e-17	0.33636335
2.9500046938355165e-10	1.0288015e-09	6.58433e-10	0.9870216	-2.0725361e-17	0.33638105
2.9751853180914635e-10	8.5596286e-10	9.218062e-10	0.9870208	-2.0725376e-17	0.33635506
3.000366026904441e-10	5.432072e-10	9.218062e-10	0.98701835	-2.0725386e-17	0.33629146
3.025052888173977e-10	5.432072e-10	5.2674637e-10	0.98701495	-2.0725397e-17	0.33620223
3.050233550410731e-10	6.831242e-10	6.58433e-10	0.987011	-2.0725402e-17	0.336094
3.0754142896084264e-10	8.312716e-10	3.950598e-10	0.98700666	-2.0725402e-17	0.3359803
3.1001011804257837e-10	7.407371e-10	3.292165e-10	0.9870026	-2.07254e-17	0.33587345
3.1252817674463614e-10	3.8682937e-10	5.2674637e-10	0.9869991	-2.0725394e-17	0.33577883
3.1504624493906247e-10	2.3045155e-10	4.609031e-10	0.98699635	-2.0725386e-17	0.33570558
3.175149433357194e-10	3.6213813e-10	5.2674637e-10	0.9869947	-2.0725378e-17	0.33565927
3.200329970489117e-10	4.4032705e-10	1.3168659e-10	0.9869938	-2.0725366e-17	0.3356386
3.225016954248021e-10	7.2427625e-10	1.975299e-10	0.986994	-2.0725356e-17	0.33564407
3.2501974859192224e-10	1.0946448e-09	6.5843296e-11	0.98699516	-2.0725351e-17	0.33567336
3.2753780547085326e-10	1.2510226e-09	5.2674637e-10	0.9869968	-2.0725343e-17	0.33572042
3.3000650317425127e-10	9.79419e-10	7.901196e-10	0.98699903	-2.072534e-17	0.33577883
3.3252456589843067e-10	7.489675e-10	7.901196e-10	0.98700136	-2.0725338e-17	0.3358443
3.3504263189933867e-10	7.6542833e-10	7.2427625e-10	0.987004	-2.0725338e-17	0.3359089
3.375113158683738e-10	8.230412e-10	7.901196e-10	0.987006	-2.0725343e-17	0.33596584
3.400293762008474e-10	4.609031e-10	4.609031e-10	0.9870079	-2.072535e-17	0.33601302
3.425474329356546e-10	4.773639e-10	5.925897e-10	0.9870091	-2.0725353e-17	0.3360463
3.450161210190749e-10	5.1028554e-10	1.975299e-10	0.98700976	-2.072536e-17	0.3360633
3.4753417540541117e-10	9.547279e-10	5.925897e-10	0.9870098	-2.0725364e-17	0.33606562
3.500028667748431e-10	9.0534535e-10	8.5596286e-10	0.98700947	-2.0725366e-17	0.33605406
3.525209272506454e-10	4.938247e-10	1.2510226e-09	0.9870085	-2.0725373e-17	0.33603
3.5503898237825097e-10	-1.975299e-10	1.0534927e-09	0.98700726	-2.0725373e-17	0.3359982
3.575076637925478e-10	-5.1028554e-10	5.2674637e-10	0.987006	-2.0725378e-17	0.33596206
3.6002572453692757e-10	-2.4691235e-10	-3.292165e-10	0.9870045	-2.0725374e-17	0.33592427
3.6254377555276224e-10	5.2674637e-10	-3.950598e-10	0.9870032	-2.0725376e-17	0.33588898
3.650124684464173e-10	1.0246863e-09	-1.3168659e-10	0.98700213	-2.0725373e-17	0.33585933
3.675305228211309e-10	6.9135464e-10	7.901196e-10	0.9870013	-2.0725371e-17	0.3358371
3.700485827459806e-10	4.115206e-11	3.292165e-10	0.98700076	-2.0725364e-17	0.33582368
3.7251726521966437e-10	3.415621e-10	-3.292165e-10	0.9870006	-2.0725361e-17	0.335819
3.7503531871667086e-10	4.4444226e-10	-5.925897e-10	0.98700076	-2.072536e-17	0.33582315
3.775040039974232e-10	1.0123407e-09	6.5843296e-11	0.9870011	-2.0725358e-17	0.33583435
3.800220531659095e-10	1.0205711e-09	5.925897e-10	0.9870018	-2.0725356e-17	0.33585137
3.825401135762402e-10	1.1687186e-09	4.609031e-10	0.9870025	-2.0725354e-17	0.33587182
3.850087885225518e-10	1.0041102e-09	7.2427625e-10	0.98700345	-2.0725354e-17	0.33589298
3.875268515079332e-10	3.292165e-10	9.218062e-10	0.98700416	-2.0725353e-17	0.3359143
3.9004490158989174e-10	4.19751e-10	7.2427625e-10	0.9870049	-2.0725358e-17	0.33593276
3.9251357192863416e-10	4.2798143e-10	5.2674637e-10	0.9870055	-2.0725356e-17	0.3359474
3.9503162699532304e-10	3.950598e-10	5.2674637e-10	0.9870057	-2.0725358e-17	0.33595714
3.9750030883526493e-10	7.078154e-10	5.2674637e-10	0.987006	-2.0725363e-17	0.3359613
4.0001837025428753e-10	5.020551e-10	7.901196e-10	0.987006	-2.0725364e-17	0.33596113
4.025364195014965e-10	2.8806443e-10	5.2674637e-10	0.9870057	-2.0725363e-17	0.33595607
4.0500508779287293e-10	3.292165e-10	4.609031e-10	0.9870055	-2.0725368e-17	0.33594757
4.075231407493761e-10	7.407371e-10	6.5843296e-11	0.987005	-2.0725366e-17	0.33593637
4.1004119406332757e-10	7.2427625e-10	2.6337318e-10	0.9870045	-2.0725366e-17	0.3359239
4.125098663195977e-10	9.464974e-10	6.58433e-10	0.9870041	-2.0725364e-17	0.33591142
4.150279168815018e-10	9.0123015e-10	1.0534927e-09	0.9870036	-2.0725366e-17	0.3359004
4.1754596201171495e-10	6.337417e-10	5.2674637e-10	0.9870033	-2.0725366e-17	0.3358908
4.200146409688779e-10	5.0617033e-10	6.58433e-10	0.987003	-2.0725366e-17	0.33588395
4.2253269797030885e-10	9.218062e-10	7.2427625e-10	0.9870029	-2.0725364e-17	0.3358803
4.250013684385595e-10	7.1604583e-10	1.2510226e-09	0.9870028	-2.0725363e-17	0.33587977
4.275194121554079e-10	1.6460824e-10	1.8436124e-09	0.98700297	-2.0725363e-17	0.3358816
4.300374543730543e-10	-1.6460824e-10	1.316866e-09	0.9870031	-2.0725361e-17	0.3358859
4.3250612049001117e-10	-6.58433e-10	5.2674637e-10	0.9870033	-2.0725361e-17	0.33589152
4.3502417432722227e-10	-1.4814742e-10	6.5843296e-11	0.9870036	-2.072536e-17	0.3358991
4.3754222253767316e-10	3.950598e-10	-2.6337318e-10	0.9870038	-2.072536e-17	0.3359058
4.400108839261705e-10	1.3909397e-09	-2.6337318e-10	0.9870041	-2.0725358e-17	0.3359125
4.4252892749960936e-10	1.4650133e-09	1.1851794e-09	0.9870044	-2.0725361e-17	0.335919
4.450469839743908e-10	3.1275565e-10	1.316866e-09	0.9870045	-2.0725363e-17	0.335923
4.475156509726643e-10	-2.9629485e-10	8.5596286e-10	0.9870046	-2.0725363e-17	0.33592588
4.500336864827112e-10	1.6460824e-10	-3.292165e-10	0.9870046	-2.0725363e-17	0.33592713
4.525023572632265e-10	7.3250667e-10	-3.950598e-10	0.9870046	-2.0725363e-17	0.33592677
4.5502040827051026e-10	1.1892946e-09	0	0.9870046	-2.0725363e-17	0.3359248
4.5753844625924647e-10	1.078184e-09	7.901196e-10	0.9870045	-2.0725364e-17	0.33592138
4.600071048923623e-10	7.7777396e-10	9.876494e-10	0.9870044	-2.0725364e-17	0.33591774
4.625251571450803e-10	4.5267268e-10	7.901196e-10	0.9870041	-2.0725366e-17	0.33591342
4.6504319565459304e-10	4.773639e-10	7.2427625e-10	0.987004	-2.0725364e-17	0.33590943
4.675118710506791e-10	1.0699536e-10	5.925897e-10	0.9870038	-2.0725363e-17	0.3359058
4.700299009096248e-10	8.230412e-11	6.5843296e-11	0.9870037	-2.0725364e-17	0.3359033
4.725479380796472e-10	6.090505e-10	-1.3168659e-10	0.9870036	-2.0725366e-17	0.33590075
4.750166078395723e-10	7.7365875e-10	1.3168659e-10	0.9870036	-2.0725361e-17	0.3359004
4.775346396678703e-10	7.7365875e-10	5.925897e-10	0.98700356	-2.0725361e-17	0.3359
4.800033139592201e-10	5.1851595e-10	9.876494e-10	0.9870036	-2.0725363e-17	0.33590057
4.825213542014812e-10	-3.2921648e-11	9.218062e-10	0.9870036	-2.0725361e-17	0.3359024
4.850393809966618e-10	4.115206e-11	0	0.9870038	-2.0725363e-17	0.33590418
4.875080407267393e-10	9.711887e-10	-6.5843296e-11	0.9870038	-2.072536e-17	0.3359065
4.900260806668142e-10	1.2510226e-09	3.950598e-10	0.987004	-2.0725363e-17	0.33590925
4.925441115517618e-10	1.316866e-09	1.1851794e-09	0.9870041	-2.0725361e-17	0.33591124
4.950127842094079e-10	9.2592134e-10	7.901196e-10	0.9870041	-2.072536e-17	0.33591306
4.975308186018514e-10	5.5966803e-10	6.58433e-10	0.9870041	-2.0725363e-17	0.33591467
5.000488475470503e-10	7.078154e-10	4.609031e-10	0.98700416	-2.0725363e-17	0.33591506
5.025175064972904e-10	9.958798e-10	5.925897e-10	0.98700416	-2.0725363e-17	0.33591542
5.050355330837989e-10	6.5020256e-10	1.0534927e-09	0.98700416	-2.0725363e-17	0.33591506
5.075041974910136e-10	8.888845e-10	1.0534927e-09	0.98700416	-2.0725363e-17	0.33591467
5.100222254081812e-10	5.967049e-10	3.950598e-10	0.9870041	-2.0725364e-17	0.33591378
5.125402588494642e-10	4.732487e-10	5.2674637e-10	0.9870041	-2.0725361e-17	0.33591196
5.150089143725178e-10	4.4855747e-10	9.218062e-10	0.9870041	-2.0725363e-17	0.33591068
5.175269490378051e-10	4.938247e-10	4.609031e-10	0.987004	-2.0725364e-17	0.33590943
5.200449793333116e-10	8.847693e-10	-1.3168659e-10	0.987004	-2.0725364e-17	0.33590832
5.225136340707848e-10	1.2345618e-09	3.950598e-10	0.98700386	-2.0725363e-17	0.3359076
5.250316643504532e-10	7.7365875e-10	7.2427625e-10	0.9870038	-2.072536e-17	0.3359065
5.275003086063457e-10	6.0493527e-10	5.2674637e-10	0.9870038	-2.0725361e-17	0.33590615
5.300183398159177e-10	6.9135464e-10	2.6337318e-10	0.9870038	-2.072536e-17	0.3359065
5.325363732372043e-10	8.9711494e-10	-1.975299e-10	0.9870038	-2.072536e-17	0.3359067
5.350050215523991e-10	1.2345618e-09	2.6337318e-10	0.9870038	-2.0725361e-17	0.33590707
5.375230527315984e-10	1.2510226e-09	5.925897e-10	0.987004	-2.0725364e-17	0.33590797
5.400410807863877e-10	8.230412e-10	1.316866e-09	0.987004	-2.0725363e-17	0.3359089
5.425097255938161e-10	-2.1399071e-10	1.4485525e-09	0.987004	-2.0725361e-17	0.33590978
5.450277575785352e-10	-3.1275565e-10	6.58433e-10	0.987004	-2.0725361e-17	0.33591032
5.475457741972345e-10	2.057603e-10	6.5843296e-11	0.98700404	-2.0725361e-17	0.33591107
5.500144257451103e-10	7.078154e-10	6.5843296e-11	0.9870041	-2.0725361e-17	0.33591124
5.525324521280337e-10	8.065804e-10	3.292165e-10	0.9870041	-2.0725361e-17	0.3359116
5.550010990055125e-10	5.6789845e-10	4.609031e-10	0.9870041	-2.0725361e-17	0.33591178
5.575191187175866e-10	7.530827e-10	7.901196e-10	0.9870041	-2.0725361e-17	0.33591142
5.600371429495719e-10	6.5843296e-11	7.2427625e-10	0.9870041	-2.0725361e-17	0.33591142
5.625057902400776e-10	0	4.609031e-10	0.9870041	-2.0725361e-17	0.33591107
5.650238163431423e-10	3.0452524e-10	6.5843296e-11	0.987004	-2.0725363e-17	0.3359105
5.67541825968082e-10	7.119306e-10	0	0.987004	-2.0725363e-17	0.33591032
5.700104772200417e-10	5.925897e-10	5.2674637e-10	0.987004	-2.0725363e-17	0.33590996
5.725284969954503e-10	1.1522577e-10	5.925897e-10	0.98700404	-2.0725363e-17	0.3359089
5.750465127225044e-10	5.802441e-10	5.2674637e-10	0.987004	-2.0725361e-17	0.33590925
5.775151687312545e-10	4.938247e-10	6.58433e-10	0.98700404	-2.0725363e-17	0.3359089
5.800331747579129e-10	6.831242e-10	6.58433e-10	0.987004	-2.0725361e-17	0.3359089
5.825018244095871e-10	1.0123407e-09	3.950598e-10	0.987004	-2.0725363e-17	0.3359089
5.850198447231155e-10	6.4197214e-10	8.5596286e-10	0.987004	-2.0725363e-17	0.3359085
5.875378512092495e-10	3.1275565e-10	5.2674637e-10	0.987004	-2.0725363e-17	0.33590925
5.900064944042384e-10	6.0082006e-10	2.6337318e-10	0.987004	-2.0725361e-17	0.33590943
5.925245156391154e-10	8.765389e-10	3.292165e-10	0.987004	-2.0725363e-17	0.33590925
5.950425239813234e-10	6.090505e-10	3.950598e-10	0.987004	-2.0725361e-17	0.33590978
5.975111674823582e-10	6.296265e-10	2.6337318e-10	0.987004	-2.0725363e-17	0.33590978
6.000291867761364e-10	5.843593e-10	7.901196e-10	0.987004	-2.072536e-17	0.33591014
6.025471907823891e-10	7.7365875e-10	5.2674637e-10	0.987004	-2.0725363e-17	0.33591014
6.050158333509346e-10	8.9711494e-10	9.876494e-10	0.98700404	-2.0725363e-17	0.33591014
6.075338511593052e-10	2.7983402e-10	1.0534927e-09	0.987004	-2.0725363e-17	0.33591014
6.100024892989971e-10	7.2427625e-10	7.2427625e-10	0.9870041	-2.0725363e-17	0.3359105
6.125205003689359e-10	5.925897e-10	4.609031e-10	0.9870041	-2.0725363e-17	0.33591014
6.150385171504207e-10	7.407371e-10	5.2674637e-10	0.98700404	-2.0725363e-17	0.33591068
6.175071563323142e-10	7.3250667e-10	7.2427625e-10	0.987004	-2.0725363e-17	0.33590996
6.200251713813371e-10	8.4773244e-10	7.901196e-10	0.987004	-2.0725363e-17	0.33590978
6.225431662326441e-10	8.888845e-10	9.876494e-10	0.987004	-2.0725363e-17	0.33590978
6.25011802963509e-10	6.9135464e-10	9.218062e-10	0.987004	-2.0725363e-17	0.33590978
6.275298251339167e-10	2.1399071e-10	9.218062e-10	0.987004	-2.0725363e-17	0.33590978
6.30047818432575e-10	-8.230412e-12	3.950598e-10	0.987004	-2.0725361e-17	0.3359096
6.325164597708016e-10	4.8559434e-10	3.950598e-10	0.987004	-2.0725361e-17	0.33590907
6.350344618793758e-10	5.020551e-10	3.292165e-10	0.987004	-2.0725363e-17	0.33590978
6.375031040697374e-10	9.218062e-10	1.3168659e-10	0.987004	-2.0725363e-17	0.33590978
6.400211172504625e-10	9.218062e-10	7.901196e-10	0.987004	-2.0725363e-17	0.33590943
6.425391194870374e-10	6.337417e-10	7.2427625e-10	0.987004	-2.0725363e-17	0.33590978
6.450077442200055e-10	3.374469e-10	3.950598e-10	0.987004	-2.0725361e-17	0.33590996
6.475257508635868e-10	7.489675e-10	5.2674637e-10	0.987004	-2.0725363e-17	0.33590996
6.50043755767033e-10	7.2427625e-10	4.609031e-10	0.987004	-2.0725363e-17	0.33590996
6.52512384489864e-10	9.2592134e-10	5.2674637e-10	0.987004	-2.0725363e-17	0.3359096
6.550304066845405e-10	7.571979e-10	3.292165e-10	0.987004	-2.0725361e-17	0.33591032
6.57548399219045e-10	5.843593e-10	8.230412e-10	0.98700404	-2.0725363e-17	0.33590978
6.600170291022643e-10	2.3045155e-10	6.58433e-10	0.987004	-2.0725363e-17	0.33590978
6.625350243058053e-10	2.5514277e-10	5.925897e-10	0.987004	-2.0725363e-17	0.33590978
6.650036665771173e-10	5.1028554e-10	2.6337318e-10	0.98700404	-2.0725363e-17	0.33591014
6.675216684197888e-10	5.349768e-10	6.5843296e-11	0.987004	-2.0725363e-17	0.33590996
6.700396764677294e-10	1.4485525e-09	1.3168659e-10	0.98700404	-2.0725363e-17	0.33590978
6.725082894197878e-10	1.3250964e-09	1.0534927e-09	0.987004	-2.0725363e-17	0.3359096
6.750262997307136e-10	5.925897e-10	1.1193361e-09	0.987004	-2.0725363e-17	0.33590996
6.775442938617559e-10	1.4814742e-10	1.0534927e-09	0.987004	-2.0725363e-17	0.3359096
6.80012924925811e-10	1.3991701e-10	5.925897e-10	0.987004	-2.0725363e-17	0.3359096
6.825309280662421e-10	6.666634e-10	2.6337318e-10	0.987004	-2.0725363e-17	0.3359096
6.850489295254146e-10	9.711887e-10	3.292165e-10	0.987004	-2.0725361e-17	0.33590943
6.875175540327904e-10	8.724237e-10	9.876494e-10	0.987004	-2.0725363e-17	0.3359096
6.900355566207491e-10	2.9629485e-10	4.609031e-10	0.987004	-2.0725363e-17	0.33590978
6.925041725950757e-10	1.975299e-10	5.2674637e-10	0.987004	-2.0725363e-17	0.3359096
6.950221626423687e-10	1.975299e-10	1.975299e-10	0.98700404	-2.0725361e-17	0.33590978
6.975401570863671e-10	7.1604583e-10	5.925897e-10	0.987004	-2.0725363e-17	0.3359096
7.00008792372872e-10	5.349768e-10	5.925897e-10	0.987004	-2.0725363e-17	0.3359096
7.025267935245433e-10	3.7859896e-10	6.58433e-10	0.987004	-2.0725363e-17	0.33590978
7.050447866276754e-10	4.938247e-10	3.292165e-10	0.987004	-2.0725363e-17	0.33590978
7.07513410985563e-10	6.172809e-10	6.5843296e-11	0.987004	-2.0725363e-17	0.33590978
7.100313998171148e-10	9.38267e-10	2.6337318e-10	0.987004	-2.0725363e-17	0.33590996
7.125000372592424e-10	1.3909397e-09	5.2674637e-10	0.987004	-2.0725363e-17	0.3359096
7.150180137298586e-10	1.0452623e-09	8.5596286e-10	0.987004	-2.0725363e-17	0.33591032
7.175360159393106e-10	8.39502e-10	1.3827093e-09	0.98700404	-2.0725363e-17	0.33590943
7.200046409608989e-10	4.115206e-10	1.0534927e-09	0.987004	-2.0725363e-17	0.33590978
7.225226377608972e-10	1.6460824e-11	8.5596286e-10	0.987004	-2.0725363e-17	0.33591032
7.250406275060474e-10	6.255113e-10	2.6337318e-10	0.987004	-2.0725363e-17	0.33590978
7.275092367193108e-10	6.707786e-10	1.975299e-10	0.987004	-2.0725363e-17	0.3359096
7.300272348901725e-10	1.0370319e-09	1.3168659e-10	0.987004	-2.0725363e-17	0.33590996
7.32545228042283e-10	9.547279e-10	6.58433e-10	0.987004	-2.0725363e-17	0.3359096
7.350138501036203e-10	5.39092e-10	6.58433e-10	0.987004	-2.0725364e-17	0.33590996
7.375318347414512e-10	6.172809e-10	6.58433e-10	0.987004	-2.0725363e-17	0.33590943
7.400004492117041e-10	1.1522577e-10	8.5596286e-10	0.987004	-2.0725363e-17	0.3359096
7.425184437886099e-10	-1.1522577e-10	3.950598e-10	0.98700404	-2.0725363e-17	0.33590978
7.450364331239588e-10	4.115206e-11	1.3168659e-10	0.987004	-2.0725363e-17	0.33590978
7.475050562926784e-10	5.925897e-10	-1.975299e-10	0.98700404	-2.0725363e-17	0.3359096
7.500230531516972e-10	1.1193361e-09	1.975299e-10	0.987004	-2.0725363e-17	0.33590996
7.525410377959929e-10	1.0534927e-09	7.901196e-10	0.987004	-2.0725363e-17	0.33590978
7.550096457696865e-10	8.5596286e-10	1.316866e-09	0.98700404	-2.0725363e-17	0.33590996
7.575276391238414e-10	2.1399071e-10	1.0534927e-09	0.987004	-2.0725363e-17	0.33590996
7.600456230241943e-10	-2.3045155e-10	7.2427625e-10	0.987004	-2.0725363e-17	0.33590978
7.625142390946968e-10	1.7695385e-10	2.6337318e-10	0.987004	-2.0725363e-17	0.33590996
7.650322280777684e-10	4.773639e-10	6.5843296e-11	0.987004	-2.0725363e-17	0.33590978
7.675008484596538e-10	7.078154e-10	0	0.987004	-2.0725363e-17	0.33590978
7.700188277954559e-10	7.901196e-10	3.292165e-10	0.987004	-2.0725363e-17	0.3359096
7.725368140233046e-10	1.0246863e-09	2.6337318e-10	0.98700404	-2.0725361e-17	0.33590978
7.750054308311083e-10	9.3003655e-10	9.876494e-10	0.987004	-2.0725363e-17	0.33590996
7.775234188222647e-10	9.38267e-10	9.218062e-10	0.987004	-2.0725363e-17	0.33590996
7.800414023465941e-10	4.156358e-10	7.901196e-10	0.987004	-2.0725363e-17	0.33590996
7.825100299751445e-10	1.8106906e-10	1.3168659e-10	0.987004	-2.0725363e-17	0.33590978
7.8502801122418e-10	9.1357577e-10	2.6337318e-10	0.987004	-2.0725363e-17	0.33590978
7.875459881886776e-10	9.917647e-10	3.950598e-10	0.987004	-2.0725363e-17	0.33591014
7.900146053508527e-10	9.0534535e-10	7.901196e-10	0.987004	-2.0725363e-17	0.33591014
7.92532583838887e-10	5.349768e-10	8.5596286e-10	0.987004	-2.0725363e-17	0.33590978
7.950011956806031e-10	2.057603e-10	8.5596286e-10	0.987004	-2.0725363e-17	0.33590996
7.975191661102503e-10	6.090505e-10	-1.3168659e-10	0.98700404	-2.0725363e-17	0.33590978
8.000371564414213e-10	1.2510226e-09	1.3168659e-10	0.987004	-2.0725363e-17	0.33590978
8.025057728938756e-10	9.38267e-10	5.925897e-10	0.98700404	-2.0725363e-17	0.33590996
8.05023762210712e-10	4.032902e-10	8.5596286e-10	0.987004	-2.0725363e-17	0.33590978
8.075417428831499e-10	6.255113e-10	4.2798143e-10	0.987004	-2.0725363e-17	0.33590996
8.100103484827595e-10	5.2674637e-10	3.950598e-10	0.987004	-2.0725363e-17	0.33591014
8.125283262359724e-10	7.078154e-10	0	0.98700404	-2.0725363e-17	0.3359096
8.150463161432091e-10	7.7365875e-10	4.609031e-10	0.987004	-2.0725361e-17	0.33591014
8.175149211145874e-10	8.724237e-10	7.901196e-10	0.987004	-2.0725363e-17	0.33590978
8.200329089382231e-10	7.489675e-10	9.218062e-10	0.987004	-2.0725363e-17	0.3359096
8.22501514038085e-10	6.0082006e-10	7.901196e-10	0.98700404	-2.0725361e-17	0.33591032
8.250194953585399e-10	4.609031e-10	8.5596286e-10	0.987004	-2.0725363e-17	0.3359096
8.275374742464613e-10	1.975299e-10	7.2427625e-10	0.987004	-2.0725363e-17	0.33591014
8.300060767684401e-10	0	5.2674637e-10	0.987004	-2.0725363e-17	0.33590996
8.325240581282631e-10	1.975299e-10	1.3168659e-10	0.987004	-2.0725363e-17	0.33590978
8.350420323039352e-10	1.1687186e-09	0	0.987004	-2.0725363e-17	0.33591014
8.375106517810157e-10	1.7613082e-09	7.901196e-10	0.98700404	-2.0725363e-17	0.33590996
8.400286243348348e-10	1.0041102e-09	1.5143958e-09	0.987004	-2.0725363e-17	0.33591014
8.425465981728111e-10	5.432072e-10	1.1193361e-09	0.987004	-2.0725363e-17	0.33590978
8.450152093699786e-10	3.7859896e-10	4.609031e-10	0.98700404	-2.0725363e-17	0.33590978
8.47533180016927e-10	2.5102756e-10	3.292165e-10	0.987004	-2.0725361e-17	0.33591014
8.500017850214533e-10	8.9711494e-10	2.6337318e-10	0.987004	-2.0725361e-17	0.33590996
8.525197723654104e-10	7.9835e-10	7.901196e-10	0.987004	-2.0725363e-17	0.33590978
8.550377500248209e-10	1.0288015e-09	5.925897e-10	0.987004	-2.0725361e-17	0.33590996
8.57506356268689e-10	1.2016401e-09	5.925897e-10	0.987004	-2.0725363e-17	0.33590978
8.600243336786414e-10	7.7777396e-10	9.218062e-10	0.987004	-2.0725363e-17	0.33590978
8.625423090634328e-10	4.609031e-10	1.1851794e-09	0.987004	-2.0725361e-17	0.33590996
8.650109078083911e-10	-5.884745e-10	1.0534927e-09	0.987004	-2.0725363e-17	0.33590978
8.675288778327502e-10	-2.9217964e-10	2.6337318e-10	0.987004	-2.0725363e-17	0.33591014
8.70046865576719e-10	1.4814742e-10	-3.292165e-10	0.987004	-2.0725361e-17	0.33590978
8.725154641857061e-10	7.7365875e-10	-5.2674637e-10	0.987004	-2.072536e-17	0.3359096
8.750334456213062e-10	1.3868244e-09	0	0.98700404	-2.0725363e-17	0.33590996
8.775020456813407e-10	9.711887e-10	4.609031e-10	0.987004	-2.0725363e-17	0.33591032
8.800200321455379e-10	5.020551e-10	1.0534927e-09	0.987004	-2.0725363e-17	0.33590943
8.825380030058286e-10	4.5267268e-10	7.2427625e-10	0.987004	-2.0725363e-17	0.33590978
8.850065996791937e-10	4.5267268e-10	5.925897e-10	0.987004	-2.0725363e-17	0.33590978