# t (s)	mx ()	my ()	mz ()	E_total (J)	MaxAngle (rad)
0	1.5596631e-09	5.2674637e-10	0.9795359	-2.0725773e-17	0.26627225
2.5267071906277147e-12	1.7613082e-09	2.2386721e-09	0.9650104	-2.0551416e-17	0.24419428
5.047487508935497e-12	5.925897e-10	3.736607e-09	0.95679635	-2.017939e-17	0.23274183
7.51750814057018e-12	-2.7983402e-09	5.267464e-09	0.95548284	-1.9806294e-17	0.2296393
1.0037298988634441e-11	-8.823002e-09	2.6995752e-09	0.9506396	-1.9495959e-17	0.22873548
1.2506431613820832e-11	-1.1325047e-08	-8.395021e-09	0.9296395	-1.8940696e-17	0.22961417
1.502198021687357e-11	8.641933e-11	-2.2386722e-08	0.87883544	-1.7544062e-17	0.23042798
1.7535723399649426e-11	2.5810573e-08	-3.1078038e-08	0.7811304	-1.4802744e-17	0.22607182
2.000221029612467e-11	5.7020294e-08	-3.713562e-08	0.62233657	-1.0902577e-17	0.21538743
2.2515618248982082e-11	8.888845e-08	-4.674874e-08	0.39075574	-6.736722e-18	0.20535767
2.503316987273744e-11	1.1578544e-07	-5.3464756e-08	0.08979839	-4.2526426e-18	0.26187336
2.7507845008139177e-11	1.0745626e-07	-7.0584015e-08	-0.2327887	-4.99933e-18	0.26418254
3.004676973365438e-11	7.278977e-08	-1.1145007e-07	-0.54607946	-7.125851e-18	0.15814126
3.253899927009241e-11	3.4238514e-08	-1.3341499e-07	-0.8143016	-1.1473769e-17	0.11084225
3.50224261704118e-11	-1.2905287e-08	-8.5530445e-08	-0.9504242	-1.5565838e-17	0.09294492
3.7501589361286835e-11	-2.594226e-08	-3.1407254e-08	-0.98687387	-1.696369e-17	0.09283632
4.0029819322024594e-11	-1.6263295e-08	-5.135777e-09	-0.9937073	-1.7250923e-17	0.09273661
4.250808047312897e-11	-6.5843295e-09	1.3827093e-09	-0.99486846	-1.7300703e-17	0.09274884
4.5035214059109755e-11	-1.4814742e-09	1.777769e-09	-0.9951244	-1.7309519e-17	0.09272953
4.751224628805063e-11	-3.2921648e-11	7.2427625e-10	-0.99518603	-1.7310379e-17	0.09270249
5.003852695570785e-11	2.6337318e-10	0	-0.9951911	-1.7310228e-17	0.09270056
5.251508039826856e-11	2.4691235e-10	-4.609031e-10	-0.995186	-1.7310232e-17	0.092705704
5.504099310159339e-11	0	-8.5596286e-10	-0.9951838	-1.731031e-17	0.092707
5.751728642893553e-11	5.925897e-10	-1.975299e-10	-0.9951843	-1.7310359e-17	0.092707
6.004302596395338e-11	1.4485525e-09	0	-0.99518526	-1.731037e-17	0.09270764
6.251915219052237e-11	8.888845e-10	-5.2674637e-10	-0.9951857	-1.7310364e-17	0.09270764
6.504474441032265e-11	1.5802392e-09	-1.1193361e-09	-0.9951859	-1.7310356e-17	0.09270635
6.752076843862788e-11	-2.3045155e-10	-6.58433e-10	-0.99518585	-1.7310354e-17	0.09270764
7.004626121219491e-11	-8.888845e-10	-2.6337318e-10	-0.9951857	-1.7310356e-17	0.09270764
7.252217270431667e-11	-4.609031e-10	-3.2921648e-11	-0.9951857	-1.7310354e-17	0.09270829
7.504757103847442e-11	-6.5843296e-11	0	-0.99518585	-1.7310354e-17	0.09270764
7.752341992451749e-11	3.2921648e-11	-3.292165e-10	-0.9951857	-1.7310354e-17	0.092707
8.004875001934583e-11	1.6460824e-10	-9.218062e-10	-0.9951857	-1.7310354e-17	0.092707
8.252453973958476e-11	-1.1522577e-10	-6.748938e-10	-0.9951857	-1.7310354e-17	0.09270764
8.500031960441505e-11	-2.9629485e-10	-7.2427625e-10	-0.9951857	-1.7310354e-17	0.09270764
8.752556901656079e-11	6.5843296e-11	-7.901196e-10	-0.9951857	-1.7310354e-17	0.092707
9.000130843059378e-11	-1.975299e-10	-4.938247e-10	-0.9951857	-1.7310354e-17	0.09270764
9.252654844719957e-11	-9.876495e-11	-4.609031e-10	-0.9951857	-1.7310354e-17	0.092707
9.500224683079005e-11	-9.876495e-11	-5.432072e-10	-0.9951857	-1.7310354e-17	0.092707
9.752746269556285e-11	0	-6.58433e-10	-0.9951857	-1.7310354e-17	0.09270764
1.0000314986553552e-10	6.5843296e-11	-5.2674637e-10	-0.9951857	-1.7310354e-17	0.09270764
1.0252834099567232e-10	-3.2921648e-11	-7.2427625e-10	-0.9951857	-1.7310354e-17	0.09270764
1.0500401226594693e-10	8.230412e-11	-7.901196e-10	-0.9951857	-1.7310354e-17	0.09270764
1.0752917888676222e-10	-9.876495e-11	-4.609031e-10	-0.9951857	-1.7310354e-17	0.09270829
1.1000483431669895e-10	-1.975299e-10	-3.292165e-10	-0.9951857	-1.7310354e-17	0.09270764
1.1252997971554502e-10	-1.6460824e-10	-3.950598e-10	-0.9951857	-1.7310354e-17	0.09270635
1.150056233946553e-10	6.5843296e-11	-3.950598e-10	-0.9951857	-1.7310354e-17	0.09270764
1.1753076175866018e-10	-1.3168659e-10	-4.609031e-10	-0.9951857	-1.7310354e-17	0.09270764
1.2000638735675607e-10	-1.8106906e-10	-6.9135464e-10	-0.9951857	-1.7310354e-17	0.09270829
1.225315168492015e-10	-9.876495e-11	-2.6337318e-10	-0.9951857	-1.7310354e-17	0.09270764
1.2500712876526285e-10	-2.9629485e-10	-6.58433e-10	-0.9951857	-1.7310354e-17	0.092707
1.2753226274555624e-10	1.6460824e-11	-3.6213813e-10	-0.9951857	-1.7310354e-17	0.092707
1.300078558876522e-10	-1.3168659e-10	-5.2674637e-10	-0.9951857	-1.7310354e-17	0.09270764
1.3253299274516661e-10	-9.876495e-11	-3.950598e-10	-0.9951857	-1.7310354e-17	0.092707
1.3500859249726614e-10	1.3168659e-10	-5.2674637e-10	-0.9951857	-1.7310354e-17	0.092707
1.3753369642629482e-10	-9.876495e-11	-5.2674637e-10	-0.9951857	-1.7310354e-17	0.09270764
1.4000930569048128e-10	3.2921648e-11	-6.255113e-10	-0.9951857	-1.7310354e-17	0.09270829
1.4253441216116486e-10	4.9382474e-11	-6.58433e-10	-0.9951857	-1.7310354e-17	0.09270829
1.4501001059644914e-10	-9.876495e-11	-5.1028554e-10	-0.9951857	-1.7310354e-17	0.092707
1.475351227585573e-10	1.3168659e-10	-7.2427625e-10	-0.9951857	-1.7310354e-17	0.092707
1.5001072224557428e-10	9.876495e-11	-6.58433e-10	-0.9951857	-1.7310354e-17	0.09270764
1.5253582108367788e-10	-2.6337318e-10	-7.2427625e-10	-0.9951857	-1.7310352e-17	0.09270764
1.550113936826352e-10	-2.6337318e-10	-1.3168659e-10	-0.9951857	-1.7310354e-17	0.092707
1.5753650635529707e-10	-1.6460824e-10	-1.975299e-10	-0.9951857	-1.7310354e-17	0.092707
1.600120916529137e-10	3.2921648e-11	-5.925897e-10	-0.9951857	-1.7310354e-17	0.092707
1.6253719690565663e-10	3.2921648e-11	-4.609031e-10	-0.9951857	-1.7310354e-17	0.09270764
1.6501279175698353e-10	-1.3168659e-10	-4.938247e-10	-0.9951857	-1.7310354e-17	0.092707
1.6753787396145971e-10	1.975299e-10	-5.5966803e-10	-0.9951857	-1.7310352e-17	0.092707
1.7001345296223777e-10	1.975299e-10	-5.2674637e-10	-0.9951857	-1.7310354e-17	0.09270764
1.7253853992523328e-10	8.230412e-11	-4.609031e-10	-0.9951857	-1.7310354e-17	0.09270764
1.750141175968304e-10	2.6337318e-10	-1.975299e-10	-0.9951857	-1.7310354e-17	0.09270764
1.7753919717008168e-10	-3.2921648e-11	-5.2674637e-10	-0.9951857	-1.7310354e-17	0.09270764
1.8001477321559273e-10	-1.6460824e-11	-5.2674637e-10	-0.9951857	-1.7310352e-17	0.092707
1.8253985791547008e-10	6.5843296e-11	-5.2674637e-10	-0.9951857	-1.7310354e-17	0.09270764
1.8501541527931182e-10	3.2921648e-11	-4.2798143e-10	-0.99518585	-1.7310354e-17	0.092707
1.8754050315814816e-10	3.2921648e-11	-6.58433e-10	-0.9951857	-1.7310354e-17	0.09270764
1.900160627598804e-10	-1.6460824e-10	-7.407371e-10	-0.9951857	-1.7310354e-17	0.092707
1.9254113814761652e-10	-2.4691235e-10	-6.58433e-10	-0.9951857	-1.7310354e-17	0.09270829
1.9501669297476614e-10	-1.1522577e-10	-1.6460824e-10	-0.9951857	-1.7310354e-17	0.092707
1.975417620238629e-10	0	-5.2674637e-10	-0.9951857	-1.7310354e-17	0.092707
2.0001732759004723e-10	-2.3045155e-10	-4.609031e-10	-0.9951857	-1.7310354e-17	0.092707
2.0254237429412774e-10	-3.292165e-10	-6.090505e-10	-0.9951857	-1.7310354e-17	0.09270764
2.0501794001716835e-10	-3.6213813e-10	-4.609031e-10	-0.9951857	-1.7310354e-17	0.09270764
2.0754298714018627e-10	-1.6460824e-10	-5.925897e-10	-0.9951857	-1.7310354e-17	0.092707
2.100185398740002e-10	-9.876495e-11	-5.2674637e-10	-0.9951857	-1.7310354e-17	0.09270764
2.1254358835251235e-10	-3.950598e-10	-4.609031e-10	-0.9951857	-1.7310354e-17	0.09270635
2.1501913277053328e-10	-3.2921648e-11	-6.58433e-10	-0.9951857	-1.7310354e-17	0.09270764
2.1754418885343832e-10	-4.9382474e-11	-4.938247e-10	-0.9951857	-1.7310354e-17	0.092707
2.2001973729067773e-10	-1.8106906e-10	-6.58433e-10	-0.9951857	-1.7310354e-17	0.092707
2.225447784322103e-10	-3.292165e-10	-6.58433e-10	-0.9951857	-1.7310354e-17	0.09270764
2.2502030044908642e-10	-1.975299e-10	-3.6213813e-10	-0.9951857	-1.7310354e-17	0.092707
2.2754536266409405e-10	0	-3.950598e-10	-0.9951857	-1.7310352e-17	0.09270764
2.300208867286202e-10	-1.6460824e-11	-5.2674637e-10	-0.9951857	-1.7310354e-17	0.09270764
2.3254592056143244e-10	6.5843296e-11	-5.2674637e-10	-0.9951857	-1.7310354e-17	0.09270764
2.3502143633140977e-10	-6.5843296e-11	-5.5966803e-10	-0.9951857	-1.7310354e-17	0.09270764
2.3754647453969367e-10	1.6460824e-10	-1.3168659e-10	-0.9951857	-1.7310354e-17	0.09270764
2.400219839778742e-10	-2.3045155e-10	-3.950598e-10	-0.9951857	-1.7310354e-17	0.092707
2.4254701255747787e-10	1.6460824e-10	-3.7859896e-10	-0.9951857	-1.7310354e-17	0.092707
2.4502252531246347e-10	-3.2921648e-11	-3.292165e-10	-0.9951857	-1.7310354e-17	0.09270764
2.475475472301478e-10	0	-2.6337318e-10	-0.9951857	-1.7310352e-17	0.09270829
2.500230612454028e-10	1.1522577e-10	-6.58433e-10	-0.9951857	-1.7310354e-17	0.09270829
2.5254806737232265e-10	-6.5843296e-11	-3.950598e-10	-0.9951857	-1.7310354e-17	0.09270635
2.550235791168766e-10	9.876495e-11	-5.2674637e-10	-0.9951857	-1.7310354e-17	0.092707
2.575485924997786e-10	-3.2921648e-11	-5.2674637e-10	-0.9951857	-1.7310354e-17	0.09270764
2.600240904586136e-10	4.9382474e-11	-5.2674637e-10	-0.9951857	-1.7310354e-17	0.09270764
2.6254909301426587e-10	3.950598e-10	-1.3168659e-10	-0.99518585	-1.7310354e-17	0.092707
2.650245780245453e-10	2.6337318e-10	-3.950598e-10	-0.9951857	-1.7310354e-17	0.09270764
2.675000717693871e-10	0	-3.950598e-10	-0.9951857	-1.7310354e-17	0.092707
2.7002506480859013e-10	1.6460824e-10	-5.2674637e-10	-0.9951857	-1.7310354e-17	0.092707
2.7250055009121306e-10	1.3168659e-10	-6.4197214e-10	-0.9951857	-1.7310354e-17	0.092707
2.750255496560469e-10	6.5843296e-11	-7.2427625e-10	-0.9951857	-1.7310354e-17	0.09270764
2.775010427476038e-10	-8.230412e-11	-7.901196e-10	-0.9951857	-1.7310354e-17	0.092707
2.800260430488273e-10	-1.6460824e-11	-4.609031e-10	-0.9951857	-1.7310354e-17	0.092707
2.8250152072477447e-10	-3.1275565e-10	-4.609031e-10	-0.9951857	-1.7310354e-17	0.09270764
2.850265222713136e-10	-2.6337318e-10	-1.975299e-10	-0.9951857	-1.7310354e-17	0.09270764
2.8750199086033444e-10	-1.1522577e-10	-6.58433e-10	-0.9951857	-1.7310354e-17	0.09270829
2.9002698589212364e-10	-3.2921648e-11	-5.2674637e-10	-0.9951857	-1.7310354e-17	0.09270764
2.9250244774262434e-10	9.876495e-11	-4.609031e-10	-0.9951857	-1.7310354e-17	0.09270764
2.950274444712835e-10	1.6460824e-10	-7.2427625e-10	-0.9951857	-1.7310354e-17	0.092707
2.9750292023448403e-10	-1.6460824e-10	-7.901196e-10	-0.9951857	-1.7310354e-17	0.09270764
3.000279050518921e-10	-1.6460824e-11	-5.2674637e-10	-0.9951857	-1.7310354e-17	0.092707
3.0250337303642965e-10	-9.876495e-11	-4.938247e-10	-0.9951857	-1.7310354e-17	0.09270764
3.050283432322867e-10	0	-3.950598e-10	-0.9951857	-1.7310354e-17	0.09270764
3.0750381861125193e-10	-1.6460824e-10	-5.925897e-10	-0.9951857	-1.7310352e-17	0.092707
3.1002879973200723e-10	1.6460824e-11	-5.2674637e-10	-0.9951857	-1.7310354e-17	0.09270764
3.1250427610512423e-10	2.9629485e-10	-5.925897e-10	-0.9951857	-1.7310352e-17	0.09270764
3.1502924590033424e-10	-4.9382474e-11	-7.901196e-10	-0.9951857	-1.7310354e-17	0.09270764
3.175047161010633e-10	-3.2921648e-11	-5.2674637e-10	-0.9951857	-1.7310354e-17	0.092707
3.200296780363318e-10	-6.5843296e-11	-9.218062e-10	-0.9951857	-1.7310354e-17	0.09270764
3.225051433531029e-10	-2.6337318e-10	-5.2674637e-10	-0.9951857	-1.7310354e-17	0.09270764
3.25030111736565e-10	3.2921648e-11	-3.950598e-10	-0.9951857	-1.7310354e-17	0.09270764
3.275055687557261e-10	3.2921648e-11	-5.2674637e-10	-0.9951857	-1.7310354e-17	0.092707
3.3003054041752476e-10	6.5843296e-11	-5.7612887e-10	-0.99518585	-1.7310354e-17	0.09270764
3.325059995806305e-10	-9.876495e-11	-3.292165e-10	-0.9951857	-1.7310354e-17	0.092707
3.3503096787604597e-10	-2.1399071e-10	-6.58433e-10	-0.9951857	-1.7310352e-17	0.09270764
3.3750642817737455e-10	-6.5843296e-11	-7.901196e-10	-0.9951857	-1.7310354e-17	0.092707
3.400313959659681e-10	-2.6337318e-10	-7.2427625e-10	-0.9951857	-1.7310354e-17	0.09270829
3.425068510496626e-10	-3.292165e-10	-4.609031e-10	-0.9951857	-1.7310354e-17	0.09270764
3.4503181285182815e-10	-1.975299e-10	-4.609031e-10	-0.9951857	-1.7310354e-17	0.09270764
3.475072770568364e-10	-6.5843296e-11	-4.609031e-10	-0.9951857	-1.7310354e-17	0.092707
3.5003223244133283e-10	9.876495e-11	-5.2674637e-10	-0.9951857	-1.7310354e-17	0.09270635
3.525076937571328e-10	-9.876495e-11	-4.609031e-10	-0.9951857	-1.7310354e-17	0.09270829
3.550326506838133e-10	1.6460824e-10	-5.2674637e-10	-0.9951857	-1.7310354e-17	0.092707
3.575081122878982e-10	-9.876495e-11	-8.5596286e-10	-0.9951857	-1.7310354e-17	0.09270764
3.600330702345311e-10	3.6213813e-10	-4.609031e-10	-0.9951857	-1.7310352e-17	0.092707
3.625085256154405e-10	2.6337318e-10	-5.925897e-10	-0.9951857	-1.7310354e-17	0.09270764
3.6503348909077064e-10	1.975299e-10	-6.58433e-10	-0.9951857	-1.7310354e-17	0.09270764
3.675089359858425e-10	9.876495e-11	-3.950598e-10	-0.9951857	-1.7310354e-17	0.092707
3.700339029084198e-10	-6.5843296e-11	-7.571979e-10	-0.9951857	-1.7310354e-17	0.092707
3.725093517183949e-10	1.6460824e-11	-3.292165e-10	-0.9951857	-1.7310354e-17	0.092707
3.7503430746188047e-10	3.1275565e-10	-8.5596286e-10	-0.9951857	-1.7310354e-17	0.092707
3.7750976068488594e-10	-1.1522577e-10	-7.2427625e-10	-0.9951857	-1.7310354e-17	0.092707
3.800347321321168e-10	-6.5843296e-11	-8.5596286e-10	-0.9951857	-1.7310354e-17	0.09270764
3.8251017578777524e-10	-2.6337318e-10	-5.2674637e-10	-0.9951857	-1.7310354e-17	0.092707
3.850351252040815e-10	-2.3045155e-10	-5.2674637e-10	-0.9951857	-1.7310354e-17	0.09270764
3.8751058738134975e-10	-2.6337318e-10	-2.6337318e-10	-0.9951857	-1.7310354e-17	0.092707
3.900355420891335e-10	-1.6460824e-10	-7.2427625e-10	-0.9951857	-1.7310354e-17	0.09270764
3.9251098943476835e-10	-6.5843296e-11	-4.609031e-10	-0.9951857	-1.7310352e-17	0.092707
3.9503595557858925e-10	-9.876495e-11	-3.950598e-10	-0.9951857	-1.7310354e-17	0.09270764
3.975114137359318e-10	-1.975299e-10	-5.2674637e-10	-0.9951857	-1.7310354e-17	0.09270764
4.0003635683711473e-10	-1.975299e-10	-3.950598e-10	-0.9951857	-1.7310354e-17	0.092707
4.025118094399539e-10	0	-3.6213813e-10	-0.9951857	-1.7310354e-17	0.092707
4.0503676898371707e-10	-1.975299e-10	-2.6337318e-10	-0.9951857	-1.7310354e-17	0.092707
4.0751220622842806e-10	-1.8106906e-10	-7.2427625e-10	-0.9951857	-1.7310354e-17	0.09270764
4.100371539115355e-10	-2.7983402e-10	-4.609031e-10	-0.9951857	-1.7310354e-17	0.092707
4.125126123965159e-10	-3.2921648e-11	-4.609031e-10	-0.9951857	-1.7310354e-17	0.09270764
4.150375606854046e-10	1.975299e-10	-4.609031e-10	-0.99518585	-1.7310354e-17	0.09270764
4.1751301935904287e-10	6.5843296e-11	-1.3168659e-10	-0.9951857	-1.7310354e-17	0.092707
4.200379755479425e-10	0	-3.292165e-10	-0.9951857	-1.7310354e-17	0.09270764
4.225134261612823e-10	9.876495e-11	-5.432072e-10	-0.9951857	-1.7310354e-17	0.09270764
4.250383877142732e-10	8.230412e-11	-8.5596286e-10	-0.9951857	-1.7310354e-17	0.09270764
4.2751382641567866e-10	-1.3168659e-10	-8.888845e-10	-0.9951857	-1.7310354e-17	0.09270764
4.3003876670716464e-10	-3.2921648e-11	-4.609031e-10	-0.9951857	-1.7310352e-17	0.09270764
4.325142206965964e-10	9.876495e-11	-5.1028554e-10	-0.9951857	-1.7310352e-17	0.092707
4.3503916905688377e-10	0	-7.2427625e-10	-0.9951857	-1.7310354e-17	0.09270635
4.3751461526861367e-10	-8.230412e-11	-3.292165e-10	-0.9951857	-1.7310354e-17	0.092707
4.4003956477524954e-10	3.6213813e-10	-3.292165e-10	-0.9951857	-1.7310354e-17	0.092707
4.4251502177458364e-10	2.4691235e-10	-2.6337318e-10	-0.9951857	-1.7310354e-17	0.092707
4.45039971175398e-10	-1.3168659e-10	-5.1028554e-10	-0.9951857	-1.7310354e-17	0.092707
4.47515434647326e-10	6.5843296e-11	-5.2674637e-10	-0.9951857	-1.7310354e-17	0.092707
4.5004036647744844e-10	-1.4814742e-10	-2.6337318e-10	-0.9951857	-1.7310354e-17	0.09270764
4.5251582869507806e-10	-9.876495e-11	-3.292165e-10	-0.9951857	-1.7310352e-17	0.092707
4.550407756816379e-10	2.3045155e-10	-3.4567732e-10	-0.9951857	-1.7310354e-17	0.09270764
4.5751622529657033e-10	-4.9382474e-11	-5.2674637e-10	-0.9951857	-1.7310354e-17	0.09270764
4.6004117935654786e-10	-1.6460824e-10	-9.876494e-10	-0.9951857	-1.7310354e-17	0.09270764
4.625166193985233e-10	-2.6337318e-10	-5.925897e-10	-0.9951857	-1.7310354e-17	0.092707
4.650415808600648e-10	1.975299e-10	-3.950598e-10	-0.9951857	-1.7310354e-17	0.092707
4.675170214528271e-10	0	-8.39502e-10	-0.9951857	-1.7310354e-17	0.092707
4.700419737084834e-10	0	-7.2427625e-10	-0.9951857	-1.7310354e-17	0.092707
4.725174098836333e-10	1.6460824e-10	-7.2427625e-10	-0.9951857	-1.7310354e-17	0.092707
4.750423695630192e-10	-9.876495e-11	-5.2674637e-10	-0.9951857	-1.7310354e-17	0.092707
4.775178201104846e-10	6.5843296e-11	-3.6213813e-10	-0.9951857	-1.7310354e-17	0.092707
4.800427637437476e-10	8.230412e-11	-5.2674637e-10	-0.9951857	-1.7310354e-17	0.09270829
4.825182166908993e-10	3.2921648e-11	-7.2427625e-10	-0.9951857	-1.7310354e-17	0.09270764
4.850431603879799e-10	-2.3045155e-10	-5.925897e-10	-0.9951857	-1.7310354e-17	0.09270829
4.875185981179255e-10	0	-4.609031e-10	-0.9951857	-1.7310354e-17	0.09270764
4.900435604774631e-10	-1.3168659e-10	-6.58433e-10	-0.9951857	-1.7310354e-17	0.092707
4.925189971417013e-10	1.3168659e-10	-4.609031e-10	-0.9951857	-1.7310352e-17	0.092707
4.950439556206651e-10	6.5843296e-11	-7.078154e-10	-0.9951857	-1.7310354e-17	0.09270764
4.975193973828591e-10	-1.3168659e-10	-8.5596286e-10	-0.9951857	-1.7310354e-17	0.092707
5.000443508428098e-10	-3.2921648e-11	-5.2674637e-10	-0.9951857	-1.7310354e-17	0.092707
5.025198050997847e-10	-3.2921648e-11	-7.2427625e-10	-0.9951857	-1.7310352e-17	0.092707
5.05044750858437e-10	-4.4444226e-10	-9.218062e-10	-0.9951857	-1.7310354e-17	0.092707
5.075202042127432e-10	-3.4567732e-10	-4.609031e-10	-0.9951857	-1.7310354e-17	0.092707
5.100451462922645e-10	1.6460824e-10	-3.950598e-10	-0.9951857	-1.7310354e-17	0.092707
5.125205984485756e-10	-1.1522577e-10	-5.2674637e-10	-0.9951857	-1.7310352e-17	0.092707
5.150455280126076e-10	-1.3168659e-10	-5.925897e-10	-0.9951857	-1.7310354e-17	0.092707
5.175209795640665e-10	-1.975299e-10	-3.1275565e-10	-0.9951857	-1.7310354e-17	0.09270764
5.200459359138722e-10	-2.7983402e-10	-6.090505e-10	-0.9951857	-1.7310354e-17	0.09270635
5.225213874798418e-10	-1.1522577e-10	-4.609031e-10	-0.9951857	-1.7310354e-17	0.09270764
5.250463407972158e-10	-2.6337318e-10	-5.2674637e-10	-0.9951857	-1.7310352e-17	0.09270764
5.275217667719023e-10	-3.292165e-10	-4.609031e-10	-0.9951857	-1.7310354e-17	0.09270764
5.300467245112431e-10	-1.8106906e-10	-3.950598e-10	-0.9951857	-1.7310354e-17	0.09270764
5.325221741660469e-10	-4.9382474e-11	-3.950598e-10	-0.9951857	-1.7310354e-17	0.092707
5.35047134852105e-10	2.3045155e-10	-3.4567732e-10	-0.9951857	-1.7310354e-17	0.09270764
5.375225807200451e-10	-1.6460824e-10	-3.292165e-10	-0.9951857	-1.7310354e-17	0.09270764
5.400475328395154e-10	-1.3168659e-10	-5.2674637e-10	-0.9951857	-1.7310354e-17	0.09270764
5.42522968562222e-10	-8.230412e-11	-3.950598e-10	-0.9951857	-1.7310352e-17	0.09270635
5.450479183103947e-10	2.1399071e-10	-3.292165e-10	-0.9951857	-1.7310354e-17	0.09270764
5.47523371775001e-10	8.230412e-11	-5.2674637e-10	-0.9951857	-1.7310354e-17	0.092707
5.500483288600475e-10	-9.876495e-11	-4.609031e-10	-0.9951857	-1.7310354e-17	0.09270764
5.525237707997485e-10	-3.2921648e-11	-5.5966803e-10	-0.9951857	-1.7310354e-17	0.092707
5.550487342773694e-10	9.876495e-11	-7.901196e-10	-0.9951857	-1.7310354e-17	0.09270764
5.575241699622699e-10	-1.1522577e-10	-7.2427625e-10	-0.9951857	-1.7310354e-17	0.09270764
5.600491311096815e-10	-3.2921648e-11	-5.2674637e-10	-0.9951857	-1.7310354e-17	0.09270764
5.625245726132042e-10	6.5843296e-11	-5.2674637e-10	-0.9951857	-1.731035e-17	0.092707
5.650000085527509e-10	-6.5843296e-11	-4.609031e-10	-0.9951857	-1.7310352e-17	0.09270635
5.675249604896435e-10	-1.6460824e-11	-3.950598e-10	-0.9951857	-1.7310352e-17	0.09270764
5.700004080677553e-10	0	-4.2798143e-10	-0.9951857	-1.7310354e-17	0.092707
5.725253570423809e-10	6.5843296e-11	-5.925897e-10	-0.9951857	-1.7310354e-17	0.092707
5.750008050429179e-10	3.2921648e-11	-7.901196e-10	-0.9951857	-1.7310354e-17	0.092707
5.775257670978218e-10	-3.2921648e-11	-8.065804e-10	-0.9951857	-1.7310354e-17	0.09270764
5.800012112587488e-10	-2.9629485e-10	-5.2674637e-10	-0.9951857	-1.7310354e-17	0.092707
5.825261466096848e-10	-2.3045155e-10	-5.2674637e-10	-0.9951857	-1.7310354e-17	0.09270829
5.85001595719697e-10	-6.5843296e-11	-4.609031e-10	-0.9951857	-1.7310354e-17	0.09270764
5.875265432754192e-10	6.5843296e-11	-8.888845e-10	-0.9951857	-1.7310354e-17	0.092707
5.900019971471756e-10	-2.3045155e-10	-6.58433e-10	-0.9951857	-1.7310354e-17	0.09270764
5.925269580776347e-10	-9.876495e-11	-5.925897e-10	-0.9951857	-1.7310354e-17	0.092707
5.950024051229121e-10	4.9382474e-11	-4.609031e-10	-0.9951857	-1.7310354e-17	0.092707
5.975273480998576e-10	4.2798143e-10	-1.975299e-10	-0.9951857	-1.7310354e-17	0.092707
6.000027947677854e-10	4.9382474e-11	-7.2427625e-10	-0.9951857	-1.7310354e-17	0.09270764
6.025277593424068e-10	0	-9.218062e-10	-0.9951857	-1.7310354e-17	0.092707
6.050031964338768e-10	-6.5843296e-11	-7.571979e-10	-0.9951857	-1.7310354e-17	0.092707
6.075281502879582e-10	0	-5.2674637e-10	-0.9951857	-1.7310354e-17	0.09270829
6.100035915291917e-10	0	-3.950598e-10	-0.9951857	-1.7310354e-17	0.092707
6.125285477475982e-10	-8.230412e-11	-3.950598e-10	-0.9951857	-1.7310354e-17	0.09270764
6.150039954451621e-10	-9.876495e-11	-5.2674637e-10	-0.9951857	-1.7310354e-17	0.09270764
6.17528945702067e-10	0	-5.2674637e-10	-0.9951857	-1.7310354e-17	0.09270764
6.200043936618831e-10	3.2921648e-11	-5.2674637e-10	-0.9951857	-1.7310354e-17	0.092707
6.225293327857126e-10	0	-5.925897e-10	-0.9951857	-1.7310354e-17	0.092707
6.250047748638354e-10	-4.9382474e-11	-5.2674637e-10	-0.9951857	-1.7310354e-17	0.09270764
6.275297267921418e-10	1.4814742e-10	-5.432072e-10	-0.9951857	-1.7310354e-17	0.09270764
6.300051677193962e-10	0	-5.2674637e-10	-0.9951857	-1.7310354e-17	0.092707
6.325301214492256e-10	2.3045155e-10	-5.2674637e-10	-0.9951857	-1.7310354e-17	0.09270635
6.350055758816648e-10	2.4691235e-10	-6.255113e-10	-0.9951857	-1.7310354e-17	0.09270829
6.375305233285374e-10	1.3168659e-10	-4.938247e-10	-0.9951857	-1.7310354e-17	0.09270635
6.400059725193354e-10	-1.975299e-10	-5.925897e-10	-0.9951857	-1.7310354e-17	0.092707
6.425309345912773e-10	-1.3168659e-10	-7.901196e-10	-0.9951857	-1.7310352e-17	0.09270764
6.450063770993601e-10	0	-7.2427625e-10	-0.9951857	-1.7310354e-17	0.09270764
6.475313262866128e-10	1.3168659e-10	-7.901196e-10	-0.9951857	-1.7310354e-17	0.09270764
6.500067574940947e-10	-1.6460824e-10	-2.6337318e-10	-0.9951857	-1.7310354e-17	0.092707
6.525317298128429e-10	-9.876495e-11	-2.6337318e-10	-0.9951857	-1.7310354e-17	0.092707
6.550071683240259e-10	9.876495e-11	-4.2798143e-10	-0.9951857	-1.7310354e-17	0.092707
6.575321349710702e-10	1.6460824e-10	-3.292165e-10	-0.9951857	-1.7310354e-17	0.09270764
6.600075718113835e-10	3.2921648e-11	-5.925897e-10	-0.9951857	-1.7310354e-17	0.09270829
6.625325187169834e-10	-6.5843296e-11	-4.609031e-10	-0.9951857	-1.7310354e-17	0.09270764
6.650079642745526e-10	-2.7983402e-10	-3.950598e-10	-0.9951857	-1.7310354e-17	0.092707
6.675329163456661e-10	-1.3168659e-10	-8.724237e-10	-0.99518585	-1.7310354e-17	0.092707
6.700083610269279e-10	-3.950598e-10	-6.58433e-10	-0.9951857	-1.7310354e-17	0.09270764
6.725333104489055e-10	-2.9629485e-10	-6.58433e-10	-0.9951857	-1.7310354e-17	0.092707
6.750087642094379e-10	-1.6460824e-10	-3.292165e-10	-0.9951857	-1.7310354e-17	0.092707
6.77533719399136e-10	-1.975299e-10	-3.950598e-10	-0.9951857	-1.7310354e-17	0.09270764
6.800091464939886e-10	-1.6460824e-10	-5.2674637e-10	-0.9951857	-1.7310354e-17	0.09270764
6.825341004753439e-10	-1.6460824e-11	-7.2427625e-10	-0.9951857	-1.7310354e-17	0.09270764
6.850095498562499e-10	6.5843296e-11	-7.407371e-10	-0.9951857	-1.7310354e-17	0.09270764
6.875345009430577e-10	0	-1.0534927e-09	-0.9951857	-1.7310354e-17	0.09270764
6.90009932228083e-10	9.876495e-11	-5.2674637e-10	-0.9951857	-1.7310354e-17	0.092707
6.92534898157505e-10	-1.3168659e-10	-5.2674637e-10	-0.9951857	-1.7310354e-17	0.092707
6.950103515636929e-10	-2.3045155e-10	-5.2674637e-10	-0.9951857	-1.7310354e-17	0.092707
6.975353059165027e-10	3.2921648e-11	-4.609031e-10	-0.9951857	-1.7310354e-17	0.09270764
7.000107524158088e-10	0	-5.2674637e-10	-0.9951857	-1.7310354e-17	0.09270764
7.025357035648602e-10	9.876495e-11	-6.58433e-10	-0.9951857	-1.7310354e-17	0.092707
7.050111528461739e-10	-4.609031e-10	-7.2427625e-10	-0.9951857	-1.7310352e-17	0.09270764
7.075361037259759e-10	-3.6213813e-10	-4.609031e-10	-0.9951857	-1.7310354e-17	0.092707
7.100115429905517e-10	-2.1399071e-10	-2.6337318e-10	-0.9951857	-1.7310354e-17	0.09270764
7.125364913688277e-10	1.6460824e-11	-5.2674637e-10	-0.9951857	-1.7310354e-17	0.092707
7.150119241345139e-10	9.876495e-11	-4.609031e-10	-0.9951857	-1.7310354e-17	0.09270764
7.175368870146515e-10	9.876495e-11	-5.2674637e-10	-0.99518585	-1.7310354e-17	0.092707
7.200123259044746e-10	1.975299e-10	-4.609031e-10	-0.9951857	-1.7310354e-17	0.092707
7.225372910312425e-10	2.1399071e-10	-5.2674637e-10	-0.9951857	-1.7310354e-17	0.09270635
7.250127310195533e-10	1.3168659e-10	-6.090505e-10	-0.9951857	-1.7310354e-17	0.092707
7.275376831954286e-10	-1.6460824e-10	-5.2674637e-10	-0.9951857	-1.7310354e-17	0.092707
7.30013138223294e-10	-1.3168659e-10	-4.609031e-10	-0.9951857	-1.7310354e-17	0.09270764
7.325380852309231e-10	-1.4814742e-10	-5.2674637e-10	-0.9951857	-1.7310354e-17	0.092707
7.350135233984574e-10	3.2921648e-11	-3.950598e-10	-0.9951857	-1.7310354e-17	0.09270764
7.375384827504947e-10	-1.3168659e-10	-4.609031e-10	-0.9951857	-1.7310354e-17	0.09270764
7.400139214214384e-10	6.5843296e-11	-6.58433e-10	-0.9951857	-1.7310354e-17	0.092707
7.425388954721762e-10	-3.6213813e-10	-7.2427625e-10	-0.9951857	-1.7310354e-17	0.09270764
7.450143291895055e-10	-9.876495e-11	-6.58433e-10	-0.9951857	-1.7310354e-17	0.09270764
7.47539283719287e-10	6.5843296e-11	-7.901196e-10	-0.9951857	-1.7310354e-17	0.09270829
7.500147189393574e-10	9.876495e-11	-7.2427625e-10	-0.9951857	-1.7310354e-17	0.092707
7.525396822293449e-10	-3.1275565e-10	-7.901196e-10	-0.9951857	-1.7310354e-17	0.092707
7.550151118240871e-10	3.2921648e-11	-5.2674637e-10	-0.9951857	-1.7310354e-17	0.09270764
7.575400641168215e-10	-9.876495e-11	-5.2674637e-10	-0.9951857	-1.7310354e-17	0.09270635
7.600155120821094e-10	1.8106906e-10	-5.432072e-10	-0.9951857	-1.7310354e-17	0.092707
7.625404705415727e-10	-3.2921648e-11	-7.901196e-10	-0.9951857	-1.7310354e-17	0.09270635
7.650159030735547e-10	-1.3168659e-10	-3.950598e-10	-0.9951857	-1.7310354e-17	0.09270635
7.675408684289677e-10	0	-1.975299e-10	-0.9951857	-1.7310354e-17	0.092707
7.700163056895119e-10	-1.6460824e-10	-5.2674637e-10	-0.9951857	-1.7310354e-17	0.092707
7.725412545808688e-10	-3.2921648e-11	-1.3168659e-10	-0.9951857	-1.7310354e-17	0.092707
7.750167123121489e-10	-3.2921648e-11	-6.58433e-10	-0.9951857	-1.7310352e-17	0.092707
7.775416735896268e-10	-2.9629485e-10	-6.58433e-10	-0.9951857	-1.7310354e-17	0.09270764
7.800171158883616e-10	-1.3168659e-10	-4.609031e-10	-0.9951857	-1.7310352e-17	0.092707
7.825420608304924e-10	0	-5.2674637e-10	-0.9951857	-1.7310354e-17	0.092707
7.850174985262778e-10	-2.6337318e-10	-6.58433e-10	-0.9951857	-1.7310352e-17	0.09270764
7.875424639637555e-10	1.6460824e-10	-6.255113e-10	-0.9951857	-1.7310354e-17	0.09270764
7.900178947315185e-10	0	-7.2427625e-10	-0.9951857	-1.7310354e-17	0.09270764
7.925428500740672e-10	2.6337318e-10	-7.901196e-10	-0.9951857	-1.7310354e-17	0.09270764
7.95018307144045e-10	-1.1522577e-10	-5.925897e-10	-0.9951857	-1.7310352e-17	0.09270764
7.975432475920933e-10	-2.9629485e-10	-7.078154e-10	-0.9951857	-1.7310354e-17	0.09270764
8.000186911237614e-10	-1.4814742e-10	-3.950598e-10	-0.9951857	-1.7310354e-17	0.09270764
8.025436540924498e-10	-1.3168659e-10	-3.950598e-10	-0.9951857	-1.7310354e-17	0.092707
8.050190968259907e-10	-9.876495e-11	-1.975299e-10	-0.9951857	-1.7310354e-17	0.09270764
8.075440593900403e-10	3.2921648e-11	-5.2674637e-10	-0.9951857	-1.7310354e-17	0.09270764
8.100194878205944e-10	-9.876495e-11	-5.2674637e-10	-0.9951857	-1.7310354e-17	0.092707
8.12544443007677e-10	6.5843296e-11	-5.2674637e-10	-0.9951857	-1.7310354e-17	0.092707
8.150198831378739e-10	6.5843296e-11	-4.609031e-10	-0.9951857	-1.7310354e-17	0.092707
8.175448345779421e-10	-1.975299e-10	-5.2674637e-10	-0.9951857	-1.7310354e-17	0.09270764
8.200202706017531e-10	-6.5843296e-11	-5.2674637e-10	-0.9951857	-1.7310354e-17	0.09270764
8.225452368354468e-10	-1.6460824e-10	-5.2674637e-10	-0.9951857	-1.7310354e-17	0.09270764
8.25020673673147e-10	-2.6337318e-10	-5.2674637e-10	-0.9951857	-1.7310354e-17	0.09270764
8.275456260952591e-10	0	-5.2674637e-10	-0.9951857	-1.7310354e-17	0.092707
8.300210730603389e-10	-1.975299e-10	-2.1399071e-10	-0.9951857	-1.7310354e-17	0.09270764
8.325460311887608e-10	1.975299e-10	-4.4444226e-10	-0.9951857	-1.7310354e-17	0.09270764
8.350214729828616e-10	-9.876495e-11	-5.2674637e-10	-0.9951857	-1.7310354e-17	0.092707
8.375464266232339e-10	1.3168659e-10	-5.2674637e-10	-0.9951857	-1.7310354e-17	0.092707
8.400218713335209e-10	-1.3168659e-10	-6.58433e-10	-0.9951857	-1.7310354e-17	0.09270764
8.425468253927099e-10	-1.6460824e-11	-4.609031e-10	-0.9951857	-1.7310354e-17	0.092707
8.450222656432039e-10	-2.3045155e-10	-9.218062e-10	-0.9951857	-1.7310354e-17	0.092707
8.475472170724961e-10	-9.876495e-11	-4.609031e-10	-0.9951857	-1.7310354e-17	0.09270764
8.50022659255738e-10	-1.975299e-10	-6.58433e-10	-0.9951857	-1.7310354e-17	0.09270764
8.52547623123797e-10	-4.9382474e-11	-4.609031e-10	-0.9951857	-1.7310354e-17	0.09270764
8.55023070070092e-10	9.876495e-11	-5.2674637e-10	-0.9951857	-1.7310354e-17	0.09270764
8.575480142062179e-10	6.5843296e-11	-7.2427625e-10	-0.9951857	-1.7310354e-17	0.092707
8.600234614457527e-10	-3.2921648e-11	-6.58433e-10	-0.9951857	-1.7310354e-17	0.09270764
8.62548415989119e-10	0	-6.58433e-10	-0.9951857	-1.7310354e-17	0.09270829
8.650238611183581e-10	-1.975299e-10	-3.950598e-10	-0.9951857	-1.7310354e-17	0.09270764
8.675488075457606e-10	-1.6460824e-10	-5.2674637e-10	-0.9951857	-1.7310354e-17	0.09270764