# t (s)	mx ()	my ()	mz ()	E_total (J)	MaxAngle (rad)
0	1.6139631e-10	3.5046055e-10	0.99524033	-1.2847277e-16	0.26547554
2.5120763415942074e-12	1.8379416e-10	2.4769392e-10	0.9952474	-1.284711e-16	0.2622746
5.035524314033647e-12	2.1541466e-10	2.9512467e-10	0.99532396	-1.2846906e-16	0.26153722
7.50719962840993e-12	2.6613922e-10	3.2411013e-10	0.99539745	-1.2846733e-16	0.2630491
1.0027080012772708e-11	2.2134351e-10	2.3731844e-10	0.9954834	-1.284662e-16	0.2657798
1.2546395801321104e-11	2.0421574e-10	3.2279263e-10	0.99560696	-1.284659e-16	0.27007273
1.5015646180559353e-11	1.4887987e-10	3.2015757e-10	0.99576986	-1.2846639e-16	0.27806133
1.7533603447244203e-11	9.617902e-11	3.1884007e-10	0.9959631	-1.2846752e-16	0.28543615
2.0002108800090442e-11	1.4097473e-10	3.3102712e-10	0.996154	-1.28469e-16	0.29790387
2.251992273906146e-11	1.2516449e-10	2.4242383e-10	0.9963286	-1.2847069e-16	0.3092512
2.503762772201357e-11	8.366258e-11	1.6666639e-10	0.9964704	-1.2847236e-16	0.32428694
2.7505851377461916e-11	2.1739095e-10	1.89723e-10	0.99657446	-1.2847384e-16	0.33518285
3.002331821375309e-11	1.9104053e-10	1.9104053e-10	0.99664634	-1.2847514e-16	0.34744954
3.254064503351249e-11	3.6692957e-10	8.4321335e-11	0.99668705	-1.2847617e-16	0.3546958
3.500848928783679e-11	2.9710095e-10	4.598148e-10	0.9966997	-1.2847706e-16	0.35681713
3.7525692753168756e-11	1.7786533e-11	5.559938e-10	0.9966884	-1.2847777e-16	0.35460964
4.004286044133223e-11	-1.9235805e-10	6.0210703e-10	0.99665695	-1.2847837e-16	0.34898448
4.251064061877319e-11	-3.1093492e-10	5.0065796e-10	0.996612	-1.2847883e-16	0.341251
4.502778102769285e-11	-4.2160667e-11	-2.6021038e-10	0.9965578	-1.2847916e-16	0.33371094
4.754492407060717e-11	4.4334578e-10	-6.3899763e-10	0.99650097	-1.2847935e-16	0.3279654
5.001271047683057e-11	1.1086938e-09	-3.527662e-10	0.9964479	-1.2847939e-16	0.32241857
5.252984879246195e-11	1.0210787e-09	6.913691e-10	0.9964002	-1.284793e-16	0.3173304
5.5046978082114795e-11	4.0052636e-10	1.2009203e-09	0.99636185	-1.2847907e-16	0.31316972
5.751477087245989e-11	-1.9565186e-10	1.0359008e-09	0.9963345	-1.2847879e-16	0.3101842
6.003190940612895e-11	-4.762838e-10	5.143272e-10	0.9963173	-1.284785e-16	0.3083158
6.254904680644213e-11	-1.9301681e-10	-2.0421574e-10	0.99631065	-1.2847821e-16	0.30758253
6.501681874930965e-11	5.342547e-10	-4.277002e-10	0.9963128	-1.2847796e-16	0.30783445
6.753395221234829e-11	9.288522e-10	-1.9713406e-10	0.99632245	-1.2847776e-16	0.30889142
7.000172771676388e-11	7.977589e-10	3.013829e-10	0.99633706	-1.2847764e-16	0.31049827
7.251884954608905e-11	4.808951e-10	7.2331896e-10	0.99635553	-1.2847756e-16	0.31249246
7.503596460190139e-11	7.773373e-11	7.667972e-10	0.99637526	-1.2847755e-16	0.31462854
7.750373597178726e-11	-9.881407e-11	5.681809e-10	0.9963942	-1.2847759e-16	0.31667528
8.002084545685523e-11	-2.0487449e-10	2.5362276e-10	0.99641186	-1.2847767e-16	0.3185634
8.253795237923814e-11	4.084315e-11	5.1383314e-11	0.99642634	-1.2847776e-16	0.32014143
8.500570675558497e-11	1.6864267e-10	1.09683616e-10	0.9964375	-1.2847788e-16	0.321325
8.752280866479825e-11	3.2279263e-10	1.9005239e-10	0.996445	-1.2847797e-16	0.3221376
9.003992464359643e-11	2.4571764e-10	2.8524327e-10	0.9964492	-1.2847809e-16	0.32256058
9.250767283296793e-11	1.6930143e-10	2.8721955e-10	0.9964498	-1.2847816e-16	0.32263276
9.502476341574014e-11	2.233198e-10	2.4736455e-10	0.99644774	-1.2847824e-16	0.32241404
9.754185693805738e-11	1.4360978e-10	2.8919583e-10	0.9964436	-1.2847829e-16	0.32196623
1.000095885553602e-10	9.81553e-11	1.8807611e-10	0.9964381	-1.2847835e-16	0.32137725
1.0252668908171988e-10	9.7496546e-11	1.7028957e-10	0.9964317	-1.2847837e-16	0.32069463
1.0504378039754865e-10	1.3241085e-10	1.9532247e-10	0.9964252	-1.2847834e-16	0.31999633
1.0751151554306265e-10	2.4901145e-10	1.5283243e-10	0.9964192	-1.2847837e-16	0.31935146
1.1002860290890579e-10	3.2411013e-10	1.9532247e-10	0.99641395	-1.2847833e-16	0.31877744
1.1254568915209971e-10	3.16205e-10	2.582341e-10	0.99640954	-1.284783e-16	0.31831798
1.150134142617005e-10	2.4374136e-10	3.2015757e-10	0.99640656	-1.2847829e-16	0.31799462
1.175305125241129e-10	1.3768094e-10	3.0961742e-10	0.99640477	-1.2847822e-16	0.3177967
1.2004760009019386e-10	1.0671919e-10	3.5540126e-10	0.99640405	-1.2847818e-16	0.3177244
1.2251531361711423e-10	6.587604e-11	2.1212086e-10	0.99640423	-1.2847816e-16	0.31776008
1.2503239383553414e-10	1.05401674e-10	1.7720655e-10	0.9964055	-1.2847816e-16	0.31788346
1.2750013248036686e-10	7.509869e-11	1.4459792e-10	0.9964072	-1.2847814e-16	0.31806615
1.3001720828424487e-10	2.0685077e-10	1.8807611e-10	0.99640924	-1.2847813e-16	0.3182896
1.325342889638381e-10	3.267452e-10	2.114621e-10	0.9964115	-1.2847812e-16	0.31852704
1.3500201750324854e-10	2.450589e-10	2.0520388e-10	0.99641347	-1.2847812e-16	0.31875306
1.3751909422369105e-10	2.114621e-10	2.7239744e-10	0.9964155	-1.2847813e-16	0.31896147
1.4003616447973161e-10	1.9104053e-10	2.6548047e-10	0.9964172	-1.2847813e-16	0.31913343
1.425038905530493e-10	5.862968e-11	2.6844488e-10	0.9964182	-1.2847817e-16	0.31926185
1.4502097029072652e-10	1.4360978e-10	2.4209446e-10	0.9964191	-1.2847817e-16	0.31934768
1.4753804818840982e-10	1.3372838e-10	2.5724595e-10	0.99641955	-1.2847818e-16	0.3193904
1.5000576154065854e-10	1.7786532e-10	2.0619202e-10	0.99641955	-1.2847817e-16	0.31939322
1.525228387372466e-10	1.9565186e-10	2.8853708e-10	0.99641937	-1.284782e-16	0.3193638
1.5503992265960497e-10	1.8577044e-10	3.5078992e-10	0.9964188	-1.2847821e-16	0.3193101
1.575076387240871e-10	1.2187068e-10	3.0764113e-10	0.9964182	-1.2847822e-16	0.31924096
1.6002470900714196e-10	1.2121192e-10	3.017123e-10	0.99641746	-1.2847821e-16	0.3191627
1.625417910496724e-10	1.297758e-10	2.4176508e-10	0.9964167	-1.284782e-16	0.31908348
1.6500950153672738e-10	2.5032898e-10	2.3484809e-10	0.996416	-1.2847821e-16	0.31901127
1.675265756531829e-10	2.496702e-10	3.2443953e-10	0.9964154	-1.284782e-16	0.31894758
1.700436461830008e-10	1.416335e-10	2.915015e-10	0.9964148	-1.284782e-16	0.3188976
1.7251137421443338e-10	1.4492729e-10	2.9677158e-10	0.9964146	-1.284782e-16	0.318863
1.7502843750166e-10	1.6534887e-10	2.1475591e-10	0.9964144	-1.284782e-16	0.31884265
1.7754550739070077e-10	1.3175208e-10	2.812907e-10	0.99641424	-1.2847818e-16	0.3188364
1.8001322244231787e-10	1.4756234e-10	2.0915644e-10	0.9964144	-1.284782e-16	0.3188413
1.8253030046729747e-10	8.82739e-11	1.2187068e-10	0.99641454	-1.284782e-16	0.31885597
1.8504736726322467e-10	1.7127771e-10	1.8577044e-10	0.9964147	-1.2847818e-16	0.31887782
1.8751507788892206e-10	2.9578343e-10	2.3682437e-10	0.99641484	-1.2847821e-16	0.3189029
1.9003214461194515e-10	2.345187e-10	2.6613922e-10	0.9964153	-1.284782e-16	0.31892994
1.9254922471030303e-10	1.8511169e-10	3.1752254e-10	0.9964154	-1.2847818e-16	0.31895557
1.9501694570022747e-10	1.9367558e-10	3.3497968e-10	0.9964156	-1.2847817e-16	0.3189782
1.9753400424509511e-10	2.3254243e-10	3.2279263e-10	0.9964159	-1.2847818e-16	0.318997
2.0000171073085507e-10	1.297758e-10	3.550719e-10	0.996416	-1.2847817e-16	0.31901127
2.0251877493828047e-10	6.8511086e-11	2.7733815e-10	0.9964161	-1.284782e-16	0.3190202
2.0503584721387167e-10	1.7127771e-10	1.9894565e-10	0.9964161	-1.284782e-16	0.31902438
2.0750356782153798e-10	2.1277963e-10	1.4525668e-10	0.9964161	-1.284782e-16	0.319024
2.1002063646987433e-10	2.081683e-10	2.282605e-10	0.9964161	-1.2847818e-16	0.31902
2.125377011598845e-10	2.0421574e-10	2.351775e-10	0.996416	-1.284782e-16	0.3190137
2.150054146846946e-10	2.6086913e-10	2.1245024e-10	0.996416	-1.2847818e-16	0.31900615
2.1752248408623632e-10	2.6613922e-10	2.4242383e-10	0.9964158	-1.284782e-16	0.3189972
2.2003954661524203e-10	1.9565186e-10	3.415673e-10	0.9964156	-1.284782e-16	0.31898805
2.2250725940466722e-10	1.05401674e-10	2.52964e-10	0.9964158	-1.284782e-16	0.31898028
2.2502431412877722e-10	1.3372838e-10	2.2891926e-10	0.99641556	-1.2847817e-16	0.31897324
2.275413796241117e-10	1.765478e-10	2.3418933e-10	0.9964155	-1.284782e-16	0.31896755
2.300090895613717e-10	1.9828689e-10	2.1014458e-10	0.9964155	-1.2847817e-16	0.3189643
2.3252615011145037e-10	3.1554626e-10	2.6152788e-10	0.9964155	-1.284782e-16	0.31896204
2.35043219486657e-10	2.5032898e-10	3.181813e-10	0.9964155	-1.2847818e-16	0.3189609
2.3751092236956976e-10	1.8050036e-10	3.2443953e-10	0.9964155	-1.2847818e-16	0.31896204
2.4002798535312125e-10	1.7061895e-10	3.1093492e-10	0.99641556	-1.284782e-16	0.31896374
2.4254503818669626e-10	1.6864267e-10	3.712115e-10	0.9964155	-1.284782e-16	0.31896603
2.4501274778556803e-10	1.4360978e-10	3.3728534e-10	0.9964155	-1.2847818e-16	0.31896886
2.475298089992123e-10	1.0013159e-10	3.366266e-10	0.99641556	-1.2847818e-16	0.3189719
2.500468741005549e-10	9.5520265e-11	1.8412355e-10	0.9964156	-1.2847818e-16	0.3189748
2.5251457478287465e-10	1.231882e-10	1.814885e-10	0.9964156	-1.2847817e-16	0.31897745
2.5503163471413454e-10	1.9894565e-10	1.7720655e-10	0.9964156	-1.284782e-16	0.31897953
2.5754869547071254e-10	2.180497e-10	1.9927503e-10	0.9964156	-1.2847817e-16	0.31898123
2.6001640460268944e-10	2.299074e-10	2.4011818e-10	0.9964156	-1.284782e-16	0.31898218
2.6253346423598554e-10	1.8115912e-10	2.7305622e-10	0.9964156	-1.2847818e-16	0.31898257
2.650011706678737e-10	2.0948582e-10	2.3254243e-10	0.9964156	-1.284782e-16	0.31898257
2.675182217255792e-10	1.4492729e-10	2.9874786e-10	0.9964156	-1.2847817e-16	0.31898183
2.700352731091728e-10	1.5414994e-10	2.99736e-10	0.9964156	-1.284782e-16	0.31898102
2.725029790351779e-10	1.9894565e-10	1.9532247e-10	0.9964156	-1.2847817e-16	0.3189805
2.7502004244019446e-10	2.7404434e-10	1.5382057e-10	0.9964156	-1.2847817e-16	0.31897914
2.7753709317145236e-10	2.5428154e-10	3.16205e-10	0.9964156	-1.284782e-16	0.3189782
2.800047914933214e-10	1.8247664e-10	2.7865565e-10	0.9964156	-1.284782e-16	0.31897745
2.8252184260185826e-10	1.7061895e-10	3.62977e-10	0.9964156	-1.284782e-16	0.31897667
2.8503889471392095e-10	9.881407e-11	3.3695596e-10	0.9964156	-1.2847818e-16	0.31897572
2.875066044688915e-10	2.5032898e-11	2.1739095e-10	0.9964156	-1.2847818e-16	0.31897572
2.9002365222182664e-10	1.7786532e-10	2.0355698e-10	0.9964156	-1.2847818e-16	0.31897536
2.9254070999058334e-10	1.6600764e-10	1.749009e-10	0.9964156	-1.2847816e-16	0.31897536
2.9500840656229186e-10	2.5428154e-10	2.5790473e-10	0.9964156	-1.284782e-16	0.31897554
2.9752545760789784e-10	2.1607342e-10	3.267452e-10	0.9964156	-1.2847818e-16	0.3189759
3.0004250718999063e-10	1.05401674e-10	3.5474249e-10	0.9964156	-1.284782e-16	0.3189761
3.025102083748669e-10	9.1567705e-11	2.3748314e-10	0.9964156	-1.2847818e-16	0.31897628
3.0502726606764786e-10	1.1264804e-10	2.1607342e-10	0.9964156	-1.2847818e-16	0.31897667
3.0754432770467044e-10	1.2779952e-10	1.8115912e-10	0.9964156	-1.2847818e-16	0.31897667
3.100120178317152e-10	2.0619202e-10	1.3372838e-10	0.9964156	-1.2847818e-16	0.31897727
3.1252906671074705e-10	2.6877425e-10	1.6238445e-10	0.9964156	-1.2847818e-16	0.31897745
3.1504611016012785e-10	2.9841848e-10	3.129112e-10	0.9964156	-1.2847817e-16	0.31897727
3.175138093478734e-10	1.7193648e-10	3.909743e-10	0.9964156	-1.2847817e-16	0.31897762
3.200308604375497e-10	4.611323e-11	3.962444e-10	0.9964156	-1.284782e-16	0.3189778
3.2254790210552305e-10	1.1001299e-10	2.6712735e-10	0.9964156	-1.284782e-16	0.31897762
3.2501559990155276e-10	2.0948582e-10	2.9578343e-10	0.9964156	-1.2847818e-16	0.31897745
3.275326498047568e-10	1.0803671e-10	3.530956e-10	0.9964156	-1.2847817e-16	0.318978
3.3000034592653817e-10	1.3241085e-10	2.513171e-10	0.9964156	-1.2847818e-16	0.31897745
3.325173903070154e-10	1.5085615e-10	2.1409714e-10	0.9964156	-1.2847818e-16	0.31897727
3.3503443944493395e-10	1.7852408e-10	2.1936723e-10	0.9964156	-1.284782e-16	0.31897727
3.375021251382183e-10	2.430826e-10	2.6416294e-10	0.9964156	-1.2847818e-16	0.31897727
3.40019183047209e-10	2.180497e-10	3.6198886e-10	0.9964156	-1.284782e-16	0.31897706
3.4253623451884203e-10	1.416335e-10	4.4400453e-10	0.9964156	-1.2847818e-16	0.31897727
3.4500392234841155e-10	1.2252944e-10	3.7714035e-10	0.9964156	-1.284782e-16	0.31897706
3.475209758360986e-10	8.300382e-11	2.733856e-10	0.9964156	-1.2847818e-16	0.31897685
3.500380195614771e-10	1.5019738e-10	1.5513808e-10	0.9964156	-1.2847817e-16	0.31897685
3.525057089241369e-10	1.9894565e-10	1.6633701e-10	0.9964156	-1.2847818e-16	0.31897667
3.550227541686317e-10	2.36495e-10	2.6152788e-10	0.9964156	-1.2847818e-16	0.31897727
3.575397985995297e-10	1.89723e-10	3.6528267e-10	0.9964156	-1.2847817e-16	0.31897667
3.600074957226299e-10	1.4360978e-10	3.2345138e-10	0.9964156	-1.284782e-16	0.31897727
3.625245314377338e-10	9.288522e-11	3.017123e-10	0.9964156	-1.2847817e-16	0.31897685
3.65041581315232e-10	5.928844e-11	2.6515107e-10	0.9964156	-1.2847817e-16	0.31897745
3.675092583421816e-10	1.765478e-10	2.4472951e-10	0.9964156	-1.2847817e-16	0.31897706
3.700263162422303e-10	1.5414994e-10	3.461786e-10	0.9964156	-1.2847818e-16	0.31897685
3.7254334731883236e-10	8.761514e-11	2.3945942e-10	0.9964156	-1.284782e-16	0.31897727
3.7501103482794704e-10	8.563886e-11	2.0487449e-10	0.9964156	-1.284782e-16	0.31897727
3.7752807571644656e-10	1.2384696e-10	2.1245024e-10	0.9964156	-1.2847818e-16	0.31897745
3.8004512700931383e-10	1.7720655e-10	2.2529607e-10	0.9964156	-1.2847818e-16	0.31897706
3.8251281431762633e-10	1.3570466e-10	2.1936723e-10	0.9964156	-1.284782e-16	0.31897727
3.850298479261501e-10	1.8050036e-10	1.9268744e-10	0.9964156	-1.2847818e-16	0.3189778
3.875468944919843e-10	1.4295101e-10	1.9598123e-10	0.9964156	-1.2847818e-16	0.31897685
3.900145748715573e-10	2.2068475e-10	2.2233165e-10	0.9964156	-1.2847818e-16	0.3189778
3.925316095099191e-10	2.8063193e-10	1.8741735e-10	0.9964156	-1.2847818e-16	0.31897745
3.950486543780432e-10	3.267452e-10	2.9907724e-10	0.9964156	-1.2847817e-16	0.31897685
3.975163482868913e-10	1.3570466e-10	3.544131e-10	0.9964156	-1.2847818e-16	0.31897706
4.000333887679928e-10	7.6416214e-11	2.6712735e-10	0.9964156	-1.2847818e-16	0.31897685
4.025010772465697e-10	9.683779e-11	1.3438713e-10	0.9964156	-1.2847818e-16	0.31897706
4.050181067837568e-10	2.6218666e-10	1.8511169e-10	0.9964156	-1.284782e-16	0.31897706
4.075351520040697e-10	2.681155e-10	2.5790473e-10	0.9964156	-1.284782e-16	0.31897727
4.100028417406274e-10	2.0619202e-10	2.7667937e-10	0.9964156	-1.2847818e-16	0.31897727
4.125198694516457e-10	1.6732515e-10	3.6330638e-10	0.9964156	-1.2847818e-16	0.31897706
4.1503690738981083e-10	7.773373e-11	3.1192307e-10	0.9964156	-1.2847818e-16	0.3189778
4.1750458714367196e-10	1.198944e-10	2.980891e-10	0.9964156	-1.2847818e-16	0.31897706
4.200216308594199e-10	1.0079035e-10	1.5546746e-10	0.9964156	-1.2847817e-16	0.31897706
4.2253867499754473e-10	1.11330514e-10	1.5777313e-10	0.9964156	-1.2847818e-16	0.31897706
4.2500635531131626e-10	1.8840549e-10	1.864292e-10	0.9964156	-1.284782e-16	0.31897685
4.2752339137596945e-10	1.1791812e-10	2.1409714e-10	0.9964156	-1.284782e-16	0.31897727
4.3004042984767836e-10	1.7259523e-10	2.532934e-10	0.9964156	-1.284782e-16	0.31897706
4.32508110297869e-10	1.2121192e-10	2.6580985e-10	0.9964156	-1.2847817e-16	0.31897706
4.3502514648876285e-10	1.3702217e-10	2.681155e-10	0.9964156	-1.2847816e-16	0.31897706
4.375421752613807e-10	2.2858987e-10	2.1508528e-10	0.9964156	-1.2847818e-16	0.31897706
4.4000986368360444e-10	2.6086913e-10	2.9248964e-10	0.9964156	-1.2847818e-16	0.31897745
4.4252689384660354e-10	2.2793112e-10	3.6857647e-10	0.9964156	-1.2847817e-16	0.31897727
4.450439395877608e-10	7.378117e-11	3.613301e-10	0.9964156	-1.2847818e-16	0.3189778
4.475116272285521e-10	1.2450573e-10	1.6172569e-10	0.9964156	-1.2847818e-16	0.31897745
4.500286474023247e-10	1.5019738e-10	1.6864267e-10	0.9964156	-1.2847818e-16	0.31897685
4.5254567784916636e-10	1.699602e-10	1.1264804e-10	0.9964156	-1.284782e-16	0.31897745
4.550133608395385e-10	1.8115912e-10	1.2384696e-10	0.9964156	-1.2847818e-16	0.31897706
4.57530407206033e-10	3.2345138e-10	2.4407074e-10	0.9964156	-1.284782e-16	0.31897745
4.600474326353784e-10	3.0764113e-10	3.544131e-10	0.9964156	-1.2847818e-16	0.31897706
4.625151138063485e-10	8.959142e-11	5.227264e-10	0.9964156	-1.284782e-16	0.31897762
4.6503214099065127e-10	-1.0671919e-10	2.7009178e-10	0.9964156	-1.2847818e-16	0.3189778
4.675491698690818e-10	3.9525627e-12	6.9499226e-11	0.9964156	-1.2847818e-16	0.31897706
4.700168550423937e-10	2.1277963e-10	1.1396556e-10	0.9964156	-1.2847818e-16	0.3189778
4.725338923469026e-10	3.6165948e-10	2.5032898e-10	0.9964156	-1.2847817e-16	0.31897706
4.750015755190247e-10	3.0368857e-10	4.196304e-10	0.9964156	-1.284782e-16	0.31897706
4.775186082956e-10	8.6297615e-11	3.277333e-10	0.9964156	-1.2847817e-16	0.31897706
4.800356422738474e-10	8.959142e-11	1.630432e-10	0.9964156	-1.2847818e-16	0.31897706
4.825033236695311e-10	1.4953862e-10	1.2417635e-10	0.9964156	-1.2847818e-16	0.31897745
4.850203448385689e-10	2.9248964e-10	1.4558606e-10	0.9964156	-1.2847818e-16	0.31897685
4.875373790192989e-10	2.6086913e-10	2.032276e-10	0.9964156	-1.284782e-16	0.31897745
4.900050539306359e-10	3.62977e-10	3.148875e-10	0.9964156	-1.284782e-16	0.31897727
4.925220900167465e-10	1.4624482e-10	5.1021e-10	0.9964156	-1.2847818e-16	0.31897706
4.950391128721808e-10	5.928844e-12	3.4683736e-10	0.9964156	-1.284782e-16	0.31897745
4.975067942105444e-10	5.6653397e-11	1.9433433e-10	0.9964156	-1.2847818e-16	0.31897685
5.000238334229748e-10	1.0013159e-10	1.4887987e-10	0.9964156	-1.2847818e-16	0.31897706
5.025408551604881e-10	2.5164648e-10	1.6007878e-10	0.9964156	-1.284782e-16	0.31897667
5.05008527377177e-10	3.260864e-10	2.8458452e-10	0.9964156	-1.2847818e-16	0.31897706
5.075255666434557e-10	2.1673219e-10	3.5111933e-10	0.9964156	-1.2847818e-16	0.31897762
5.100425919760891e-10	1.1857688e-10	3.1258182e-10	0.9964156	-1.2847818e-16	0.31897727
5.125102704452006e-10	5.0724553e-11	2.4044755e-10	0.9964156	-1.2847818e-16	0.31897706
5.150272976481833e-10	1.11330514e-10	1.3043457e-10	0.9964156	-1.2847818e-16	0.31897685
5.175443309192255e-10	2.8063193e-10	1.7852408e-10	0.9964156	-1.2847818e-16	0.31897706
5.200120073842091e-10	3.5704817e-10	2.5230526e-10	0.9964156	-1.284782e-16	0.31897745
5.225290391375433e-10	1.9367558e-10	3.9031556e-10	0.9964156	-1.2847818e-16	0.31897745
5.250460642718555e-10	7.312241e-11	3.5671877e-10	0.9964156	-1.284782e-16	0.31897745
5.275137375109107e-10	9.222646e-11	2.0026318e-10	0.9964156	-1.2847818e-16	0.31897727
5.300307692036457e-10	1.05401674e-10	1.4130412e-10	0.9964156	-1.2847818e-16	0.31897745
5.325477952990314e-10	1.3372838e-10	1.5052676e-10	0.9964156	-1.2847818e-16	0.31897706
5.350154803427724e-10	2.9841848e-10	3.148875e-10	0.9964156	-1.2847818e-16	0.31897762
5.375325034985017e-10	1.0276663e-10	3.86363e-10	0.9964156	-1.2847818e-16	0.31897745
5.40000180185011e-10	1.7786533e-11	2.8359637e-10	0.9964156	-1.2847818e-16	0.31897727
5.425172054863448e-10	1.231882e-10	1.9598123e-10	0.9964156	-1.284782e-16	0.31897745
5.450342269764956e-10	2.4769392e-10	8.1356914e-11	0.9964156	-1.2847818e-16	0.31897685
5.475019039246868e-10	3.267452e-10	1.6501948e-10	0.9964156	-1.2847818e-16	0.31897727
5.500189250985569e-10	2.714093e-10	3.4881364e-10	0.9964156	-1.284782e-16	0.31897762
5.5253595720217e-10	1.864292e-10	2.849139e-10	0.9964156	-1.284782e-16	0.31897745
5.550036302758454e-10	1.4756234e-10	2.5197586e-10	0.9964156	-1.284782e-16	0.31897762
5.575206718773166e-10	2.4110633e-10	2.2924863e-10	0.9964156	-1.2847818e-16	0.31897706
5.600376904882391e-10	2.681155e-10	2.7437372e-10	0.9964156	-1.2847818e-16	0.31897727
5.625053603146751e-10	1.8906425e-10	1.7127771e-10	0.9964156	-1.2847818e-16	0.31897706
5.650223911014063e-10	2.0685077e-10	3.145581e-10	0.9964156	-1.2847818e-16	0.31897745
5.675394145641397e-10	2.2266103e-10	2.1047396e-10	0.9964156	-1.2847817e-16	0.31897745
5.700070908398437e-10	1.4492729e-10	2.0915644e-10	0.9964156	-1.2847818e-16	0.31897745
5.725241165253614e-10	2.1475591e-10	1.9927503e-10	0.9964156	-1.284782e-16	0.31897745
5.750411413751151e-10	2.8524327e-10	1.9202867e-10	0.9964156	-1.2847818e-16	0.31897727
5.775088130689216e-10	2.4044755e-10	3.148875e-10	0.9964156	-1.2847818e-16	0.31897727
5.800258388084447e-10	2.3056615e-10	2.1870847e-10	0.9964156	-1.2847818e-16	0.31897762
5.825428625775268e-10	2.1343838e-10	1.5942003e-10	0.9964156	-1.2847818e-16	0.31897727
5.850105304428127e-10	2.5559904e-10	1.1758874e-10	0.9964156	-1.2847818e-16	0.31897706
5.875275561391086e-10	2.8919583e-10	2.9347777e-10	0.9964156	-1.2847818e-16	0.31897727
5.900445857209355e-10	2.496702e-10	2.697624e-10	0.9964156	-1.2847818e-16	0.31897745
5.925122620840336e-10	1.6007878e-10	3.0566485e-10	0.9964156	-1.284782e-16	0.31897745
5.950292803195119e-10	3.6231823e-11	1.8708797e-10	0.9964156	-1.2847818e-16	0.31897762
5.975463107975447e-10	1.2779952e-10	7.9380634e-11	0.9964156	-1.2847816e-16	0.31897745
6.000139803098906e-10	2.2595484e-10	4.150191e-11	0.9964156	-1.284782e-16	0.31897727
6.025310060686436e-10	3.0039476e-10	1.9268744e-10	0.9964156	-1.284782e-16	0.31897727
6.050480231099562e-10	3.8669237e-10	3.0928804e-10	0.9964156	-1.284782e-16	0.31897727
6.075157056960037e-10	2.081683e-10	4.1831288e-10	0.9964156	-1.2847818e-16	0.31897727
6.100327178225217e-10	1.363634e-10	2.6350416e-10	0.9964156	-1.2847818e-16	0.31897727
6.12500397353384e-10	1.01449106e-10	1.0803671e-10	0.9964156	-1.2847818e-16	0.31897727
6.150174194321855e-10	1.1001299e-10	1.166006e-10	0.9964156	-1.2847818e-16	0.31897727
6.175344435193484e-10	3.0368857e-10	1.4756234e-10	0.9964156	-1.2847818e-16	0.31897706
6.200021017275748e-10	2.36495e-10	2.3418933e-10	0.9964156	-1.284782e-16	0.31897685
6.225191342558577e-10	2.1080335e-10	2.3385996e-10	0.9964156	-1.2847818e-16	0.31897727
6.250361550489564e-10	2.4176508e-10	2.8425512e-10	0.9964156	-1.284782e-16	0.31897745
6.275038189264465e-10	2.8590202e-10	3.6462391e-10	0.9964156	-1.2847818e-16	0.31897745
6.300208501488207e-10	2.3385996e-10	2.895252e-10	0.9964156	-1.284782e-16	0.31897685
6.325378681301619e-10	2.351775e-10	2.8293762e-10	0.9964156	-1.2847818e-16	0.31897727
6.350055361605456e-10	1.0079035e-10	3.3728534e-10	0.9964156	-1.2847818e-16	0.31897745
6.375225687940166e-10	1.01449106e-10	2.532934e-10	0.9964156	-1.284782e-16	0.31897706
6.400395894572512e-10	1.09354234e-10	1.9499309e-10	0.9964156	-1.284782e-16	0.31897706
6.425072555503506e-10	2.0289821e-10	2.8030256e-10	0.9964156	-1.2847818e-16	0.31897706
6.450242846139073e-10	1.1725936e-10	2.328718e-10	0.9964156	-1.2847818e-16	0.31897745
6.47541299906302e-10	1.5942003e-10	1.8511169e-10	0.9964156	-1.2847818e-16	0.31897685
6.500089738082995e-10	1.9762814e-10	2.565872e-10	0.9964156	-1.2847818e-16	0.31897685
6.525260010211356e-10	2.2397854e-10	2.7997318e-10	0.9964156	-1.2847816e-16	0.31897745
6.550430223893585e-10	2.5625782e-10	3.527662e-10	0.9964156	-1.2847818e-16	0.31897685
6.575106898583962e-10	1.1857688e-10	3.2213385e-10	0.9964156	-1.284782e-16	0.31897727
6.600277052297979e-10	7.0487366e-11	1.7852408e-10	0.9964156	-1.2847816e-16	0.31897727
6.625447337620535e-10	1.3241085e-10	1.749009e-10	0.9964156	-1.2847818e-16	0.31897706
6.650123996663065e-10	1.6007878e-10	1.6205506e-10	0.9964156	-1.2847818e-16	0.31897727
6.675294247935625e-10	2.2200226e-10	2.9512467e-10	0.9964156	-1.2847818e-16	0.31897685
6.700464385479752e-10	1.6864267e-10	2.9578343e-10	0.9964156	-1.2847818e-16	0.31897727
6.725141071242734e-10	1.166006e-10	2.0915644e-10	0.9964156	-1.2847818e-16	0.31897706
6.750311371052551e-10	1.0276663e-10	2.2661359e-10	0.9964156	-1.2847818e-16	0.31897706
6.775481565642608e-10	1.2779952e-10	1.9960442e-10	0.9964156	-1.2847818e-16	0.31897685
6.800158264423401e-10	2.2529607e-10	1.8708797e-10	0.9964156	-1.284782e-16	0.31897745
6.825328476934298e-10	2.4242383e-10	3.3003897e-10	0.9964156	-1.2847818e-16	0.31897727
6.850005093696652e-10	1.765478e-10	2.8557265e-10	0.9964156	-1.284782e-16	0.31897727
6.875175416965312e-10	8.82739e-11	2.0421574e-10	0.9964156	-1.284782e-16	0.31897745
6.90034561053319e-10	1.4756234e-10	1.4295101e-10	0.9964156	-1.2847817e-16	0.31897685
6.92502230478944e-10	2.1212086e-10	1.09683616e-10	0.9964156	-1.2847818e-16	0.31897727
6.950192535487345e-10	3.2411013e-10	2.2266103e-10	0.9964156	-1.2847818e-16	0.31897727
6.97536270987063e-10	2.1475591e-10	3.4914305e-10	0.9964156	-1.2847816e-16	0.31897706
7.000039367191972e-10	1.9433433e-10	4.6673176e-10	0.9964156	-1.2847818e-16	0.31897727
7.025209591976868e-10	1.4229226e-10	3.8998618e-10	0.9964156	-1.2847816e-16	0.31897706
7.050379811186441e-10	2.5691657e-11	3.382735e-10	0.9964156	-1.2847818e-16	0.31897727
7.075056460935687e-10	6.982861e-11	1.7523027e-10	0.9964156	-1.2847818e-16	0.31897745
7.100226683192071e-10	2.444001e-10	2.081683e-10	0.9964156	-1.2847818e-16	0.31897685
7.125396810850839e-10	2.1409714e-10	2.4242383e-10	0.9964156	-1.2847818e-16	0.31897727
7.150073434807955e-10	1.5744375e-10	2.0092193e-10	0.9964156	-1.2847818e-16	0.31897685
7.175243703906215e-10	1.7523027e-10	1.3801031e-10	0.9964156	-1.2847818e-16	0.31897727
7.200413845022887e-10	3.129112e-10	1.9696937e-10	0.9964156	-1.2847817e-16	0.31897706
7.22509056415236e-10	3.0895864e-10	2.878783e-10	0.9964156	-1.284782e-16	0.31897706
7.2502608187591e-10	1.5744375e-10	3.4848427e-10	0.9964156	-1.2847818e-16	0.31897706
7.275430956757133e-10	1.2582324e-10	3.2905084e-10	0.9964156	-1.284782e-16	0.31897727
7.300107664723792e-10	7.378117e-11	2.2694298e-10	0.9964156	-1.2847818e-16	0.31897706
7.325277825609902e-10	8.695638e-11	1.15283075e-10	0.9964156	-1.2847818e-16	0.31897706
7.350448018549336e-10	2.444001e-10	1.913699e-10	0.9964156	-1.2847818e-16	0.31897745
7.37512474942565e-10	3.6363576e-10	2.2727235e-10	0.9964156	-1.284782e-16	0.31897745
7.400294976510378e-10	2.8260824e-10	3.0862926e-10	0.9964156	-1.284782e-16	0.31897745
7.425465116288241e-10	1.5942003e-10	3.3201528e-10	0.9964156	-1.2847818e-16	0.31897727
7.450141783765051e-10	1.5217366e-10	2.8754893e-10	0.9964156	-1.2847818e-16	0.31897706
7.475311960944418e-10	1.5876127e-10	3.3695596e-10	0.9964156	-1.2847818e-16	0.31897745
7.500482226707122e-10	1.2252944e-10	3.16205e-10	0.9964156	-1.2847818e-16	0.31897727
7.525158848760895e-10	1.4690357e-10	2.3089554e-10	0.9964156	-1.2847818e-16	0.31897706
7.550329134092288e-10	2.3715377e-10	2.6745675e-10	0.9964156	-1.2847818e-16	0.31897685
7.575005776762774e-10	1.5349118e-10	3.3234465e-10	0.9964156	-1.2847818e-16	0.31897706
7.600175949529833e-10	4.6771993e-11	2.9446592e-10	0.9964156	-1.2847818e-16	0.31897745
7.625346223656163e-10	1.864292e-10	2.3385996e-10	0.9964156	-1.2847818e-16	0.31897685
7.650022839070359e-10	1.633726e-10	2.4407074e-10	0.9964156	-1.2847818e-16	0.31897727
7.675192977494908e-10	2.0750954e-10	2.8886646e-10	0.9964156	-1.284782e-16	0.31897706
7.700363198790051e-10	1.633726e-10	2.3748314e-10	0.9964156	-1.2847818e-16	0.31897745
7.725039837309449e-10	2.7667937e-10	1.7852408e-10	0.9964156	-1.284782e-16	0.31897745
7.75020994015486e-10	3.3069775e-10	2.8260824e-10	0.9964156	-1.284782e-16	0.31897706
7.775380236201714e-10	1.864292e-10	2.8227884e-10	0.9964156	-1.2847818e-16	0.31897745
7.800056924550648e-10	1.581025e-10	2.9413655e-10	0.9964156	-1.2847818e-16	0.31897727
7.825227079290432e-10	2.0487449e-10	2.7075053e-10	0.9964156	-1.284782e-16	0.31897727
7.850397263244328e-10	1.6469011e-10	2.3913005e-10	0.9964156	-1.2847818e-16	0.31897727
7.875073889342594e-10	1.73254e-10	2.2397854e-10	0.9964156	-1.284782e-16	0.31897706
7.900244030074359e-10	2.8721955e-10	2.5625782e-10	0.9964156	-1.284782e-16	0.31897762
7.925414293758235e-10	2.332012e-10	2.3155429e-10	0.9964156	-1.2847818e-16	0.31897745
7.950090960364243e-10	3.214751e-10	2.6877425e-10	0.9964156	-1.2847818e-16	0.31897727
7.975261150489005e-10	1.6600764e-10	3.277333e-10	0.9964156	-1.2847816e-16	0.31897706
8.000431285142303e-10	1.3570466e-10	3.23122e-10	0.9964156	-1.284782e-16	0.31897745
8.025108012835182e-10	8.2345054e-11	2.0487449e-10	0.9964156	-1.2847818e-16	0.31897706
8.050278208309092e-10	1.9696937e-10	1.3109333e-10	0.9964156	-1.2847816e-16	0.31897727
8.075448431034139e-10	2.114621e-10	2.3781252e-10	0.9964156	-1.284782e-16	0.31897727
8.100125134622066e-10	1.9762814e-10	2.5098773e-10	0.9964156	-1.2847818e-16	0.31897727
8.125295322946949e-10	1.9565186e-10	2.812907e-10	0.9964156	-1.284782e-16	0.31897706
8.150465519292559e-10	2.6086913e-10	1.9235805e-10	0.9964156	-1.2847818e-16	0.31897727
8.175142165078406e-10	2.9710095e-10	2.4901145e-10	0.9964156	-1.2847818e-16	0.31897727
8.200312289549943e-10	2.3056615e-10	2.015807e-10	0.9964156	-1.2847818e-16	0.31897727
8.225482472145584e-10	2.1212086e-10	3.2279263e-10	0.9964156	-1.2847818e-16	0.31897745
8.250159148773279e-10	1.3965722e-10	2.6679797e-10	0.9964156	-1.284782e-16	0.31897706
8.275329311071174e-10	2.3913005e-10	1.6106692e-10	0.9964156	-1.2847818e-16	0.31897745
8.300005940625312e-10	2.450589e-10	2.3682437e-10	0.9964156	-1.284782e-16	0.31897685
8.325176157462896e-10	3.1752254e-10	3.3794412e-10	0.9964156	-1.284782e-16	0.31897745
8.35034636239786e-10	2.4044755e-10	3.8142228e-10	0.9964156	-1.284782e-16	0.31897706
8.37502306319082e-10	1.5283243e-10	2.5197586e-10	0.9964156	-1.284782e-16	0.31897762
8.400193222403945e-10	6.916984e-11	1.8774672e-10	0.9964156	-1.284782e-16	0.31897706
8.425363344839473e-10	2.5098773e-10	1.73254e-10	0.9964156	-1.2847818e-16	0.31897727
8.450040043016049e-10	2.3781252e-10	1.8017098e-10	0.9964156	-1.2847818e-16	0.31897727
8.475210120918164e-10	2.7931443e-10	2.5230526e-10	0.9964156	-1.2847818e-16	0.31897706
8.500380383023135e-10	3.2411013e-10	2.895252e-10	0.9964156	-1.284782e-16	0.31897745
8.525057052543177e-10	2.2068475e-10	3.5902445e-10	0.9964156	-1.2847818e-16	0.31897745
8.550227307002002e-10	1.7588904e-10	2.7865565e-10	0.9964156	-1.284782e-16	0.31897745
8.575397492175593e-10	1.9433433e-10	3.39591e-10	0.9964156	-1.284782e-16	0.31897706
8.600074141288857e-10	1.5217366e-10	3.0368857e-10	0.9964156	-1.2847816e-16	0.31897745
8.625244321820852e-10	1.3438713e-10	1.7457152e-10	0.9964156	-1.2847818e-16	0.31897706
8.650414518968138e-10	1.13306795e-10	2.8425512e-10	0.9964156	-1.2847818e-16	0.31897745
8.675091131163463e-10	1.1725936e-10	2.229904e-10	0.9964156	-1.2847818e-16	0.31897685
8.700261294665139e-10	5.0065795e-11	2.2562545e-10	0.9964156	-1.2847818e-16	0.31897745
8.725431471694598e-10	1.8313541e-10	1.9532247e-10	0.9964156	-1.2847818e-16	0.31897745
8.750108123996744e-10	2.8721955e-10	2.648217e-10	0.9964156	-1.284782e-16	0.31897706