# t (s)	mx ()	my ()	mz ()	E_total (J)	MaxAngle (rad)
0	3.6831094e-10	5.5966803e-10	0.99555624	-1.2884941e-16	0.65445405
2.6035925306409433e-12	-2.6337318e-10	6.58433e-10	0.9914215	-1.2866978e-16	0.5835141
5.186858368777082e-12	-1.3497876e-09	1.975299e-10	0.9857173	-1.2806447e-16	0.568197
7.639522544738872e-12	-3.4896948e-09	-3.7201462e-09	0.9790902	-1.2667466e-16	0.599497
1.012948542144342e-11	-1.4485525e-09	-1.3432032e-08	0.96488714	-1.2379933e-16	0.58201253
1.2512570087877304e-11	-7.242763e-09	-2.5744729e-08	0.9255373	-1.218625e-16	0.36155787
1.5007484859051048e-11	1.1259204e-08	-4.2798142e-08	0.87077904	-1.1854958e-16	0.51170564
1.765787035625505e-11	-1.3774418e-07	1.356372e-07	0.80126864	-1.1523207e-16	0.5468713
2.008008251078378e-11	-1.4854907e-06	1.3497876e-08	0.72749346	-1.1813636e-16	0.27223092
2.2532939983015064e-11	-3.331671e-07	-4.2374113e-06	0.6594112	-1.1497302e-16	0.38754335
2.5034516185512008e-11	1.0644228e-05	-4.609031e-06	0.6095508	-1.080264e-16	0.6985182
2.7608584925639593e-11	1.9953152e-06	5.2311843e-06	0.5199465	-1.1522114e-16	0.6487118
3.015270182948e-11	8.170001e-06	5.027465e-06	0.4879288	-1.1928711e-16	0.67602533
3.252167653904309e-11	7.733098e-06	3.9619886e-06	0.47822875	-1.200597e-16	0.6531261
3.527402636530317e-11	5.450208e-06	3.4644108e-06	0.47134292	-1.203674e-16	0.624622
3.767930036032206e-11	3.4721722e-06	2.8507513e-06	0.46659422	-1.204968e-16	0.6084441
4.010505501932761e-11	1.9697186e-06	2.0833477e-06	0.4624139	-1.2057944e-16	0.5905021
4.27930158203201e-11	9.504645e-07	1.3199606e-06	0.45834115	-1.206385e-16	0.5742123
4.5202706473932144e-11	4.6445038e-07	8.4829213e-07	0.45517543	-1.2067059e-16	0.57137626
4.758577306896963e-11	1.9897844e-07	5.7843334e-07	0.45249802	-1.2068823e-16	0.5678148
5.0291571745944785e-11	9.38267e-10	4.210185e-07	0.44999042	-1.2069689e-16	0.5638326
5.267951334952244e-11	-1.3917627e-07	3.300066e-07	0.44821256	-1.2069842e-16	0.56060874
5.508284606159598e-11	-2.49793e-07	2.3871488e-07	0.44678634	-1.2069689e-16	0.5579552
5.777217472522272e-11	-3.2136467e-07	1.29415e-07	0.4455667	-1.2069345e-16	0.5557405
6.017212209881308e-11	-3.356362e-07	4.069116e-08	0.44476065	-1.2068987e-16	0.5543454
6.256377336593858e-11	-3.131672e-07	-2.5810573e-08	0.44417414	-1.2068633e-16	0.5536118
6.526074823234575e-11	-2.6625383e-07	-6.860871e-08	0.44372723	-1.2068261e-16	0.5530934
6.765302610490906e-11	-2.2189191e-07	-8.332469e-08	0.44348612	-1.2067967e-16	0.5528801
7.004893107047655e-11	-1.8232832e-07	-8.549752e-08	0.4433585	-1.2067715e-16	0.552846
7.274152641297694e-11	-1.4579352e-07	-8.111894e-08	0.4433163	-1.2067484e-16	0.55295503
7.513649567382056e-11	-1.1762082e-07	-7.6049005e-08	0.4433444	-1.2067324e-16	0.553133
7.752999106952347e-11	-9.181848e-08	-7.0616935e-08	0.4434156	-1.2067203e-16	0.55335
8.022346088178639e-11	-6.493795e-08	-6.2156076e-08	0.44352823	-1.2067108e-16	0.5536118
8.261688260819441e-11	-4.3555342e-08	-5.198328e-08	0.4436431	-1.2067054e-16	0.5538437
8.501034225169508e-11	-2.6271476e-08	-4.1975103e-08	0.44376177	-1.206702e-16	0.5540636
8.77031891298783e-11	-1.2065784e-08	-2.9629483e-08	0.44389176	-1.2067005e-16	0.554291
9.009636298246515e-11	-3.1934e-09	-2.0016362e-08	0.4439995	-1.2067006e-16	0.5544689
9.278916982863223e-11	3.1604783e-09	-1.1901176e-08	0.44410834	-1.2067017e-16	0.5546396
9.518207224980377e-11	6.765399e-09	-5.9258967e-09	0.44419223	-1.2067033e-16	0.55476767
9.757550323531587e-11	9.415592e-09	-1.0864144e-09	0.4442633	-1.2067051e-16	0.554874
1.0026765010063938e-10	1.10122915e-08	2.7654186e-09	0.4443285	-1.2067076e-16	0.5549704
1.026607638044674e-10	1.1193361e-08	5.629602e-09	0.44437408	-1.2067093e-16	0.5550359
1.050536503209696e-10	1.0864144e-08	7.0781545e-09	0.44440943	-1.2067115e-16	0.5550852
1.077459511719824e-10	1.0139868e-08	7.868274e-09	0.4444385	-1.2067134e-16	0.5551249
1.1013848646716683e-10	8.658394e-09	7.7695095e-09	0.44445628	-1.2067153e-16	0.55514795
1.1253157914704055e-10	7.687205e-09	7.5719795e-09	0.44446796	-1.2067165e-16	0.5551619
1.152231778732089e-10	6.7818595e-09	6.5843295e-09	0.44447517	-1.2067178e-16	0.55516714
1.1761599040764042e-10	5.9258967e-09	5.8271317e-09	0.44447762	-1.2067189e-16	0.5551656
1.2000878630542625e-10	5.2180815e-09	4.8065605e-09	0.44447726	-1.2067194e-16	0.5551589
1.227003033146477e-10	4.3785793e-09	4.609031e-09	0.4444747	-1.2067202e-16	0.5551487
1.250931116118357e-10	3.8847547e-09	3.753068e-09	0.44447103	-1.2067205e-16	0.55513686
1.2778445735410775e-10	3.1110958e-09	3.4238514e-09	0.4444662	-1.2067207e-16	0.5551215
1.3017722732909708e-10	2.6666536e-09	2.5020452e-09	0.44446158	-1.2067209e-16	0.55510736
1.325694664644938e-10	2.6501927e-09	1.9423774e-09	0.44445705	-1.2067209e-16	0.5550942
1.3526121601523898e-10	2.1892896e-09	1.2839443e-09	0.44445226	-1.2067211e-16	0.5550808
1.3765344391961237e-10	2.3703588e-09	8.888845e-10	0.44444844	-1.206721e-16	0.5550693
1.400458254673405e-10	2.3868196e-09	7.571979e-10	0.4444451	-1.2067209e-16	0.5550595
1.4273738008912142e-10	2.1810591e-09	1.0534927e-09	0.44444185	-1.206721e-16	0.555048
1.451296836241252e-10	2.0411421e-09	3.950598e-10	0.44443953	-1.2067209e-16	0.5550404
1.4752231504678836e-10	1.7448474e-09	9.876494e-10	0.44443768	-1.2067207e-16	0.5550344
1.5021335784167275e-10	1.7119257e-09	4.609031e-10	0.4444361	-1.2067206e-16	0.55502963
1.5260583969384692e-10	2.0905246e-09	-1.3168659e-10	0.44443503	-1.2067205e-16	0.55502576
1.5529707923519324e-10	2.2386721e-09	8.230412e-11	0.4444342	-1.2067205e-16	0.55502176
1.5768952935807789e-10	2.2469024e-09	1.6460824e-10	0.44443378	-1.2067205e-16	0.55501974
1.6008128120071552e-10	2.2880546e-09	3.6213813e-10	0.44443348	-1.2067205e-16	0.5550189
1.6277311704885187e-10	2.5267366e-09	-1.6460824e-10	0.4444334	-1.2067203e-16	0.55501926
1.6516482889502907e-10	2.6255014e-09	4.609031e-10	0.44443336	-1.2067205e-16	0.555019
1.675573460033655e-10	2.0740638e-09	5.925897e-10	0.4444335	-1.2067203e-16	0.55501914
1.7024867041744448e-10	2.1892896e-09	2.1399071e-10	0.44443363	-1.2067205e-16	0.555019
1.72640810620652e-10	1.9999902e-09	2.6337318e-10	0.4444338	-1.2067203e-16	0.55502003
1.7503305063187462e-10	2.0082205e-09	3.950598e-10	0.44443402	-1.2067203e-16	0.55502105
1.7772417946813374e-10	1.679004e-09	2.6337318e-10	0.44443426	-1.2067205e-16	0.5550226
1.801167195962813e-10	2.156368e-09	5.925897e-10	0.44443443	-1.2067203e-16	0.5550233
1.8250874393554888e-10	2.1728288e-09	3.6213813e-10	0.44443455	-1.2067203e-16	0.55502367
1.852000093299614e-10	1.9835293e-09	5.5966803e-10	0.44443473	-1.2067203e-16	0.5550252
1.8759213375498127e-10	2.436202e-09	7.078154e-10	0.44443485	-1.2067202e-16	0.5550263
1.9028344859388806e-10	2.296285e-09	1.1522577e-10	0.44443497	-1.2067202e-16	0.55502695
1.9267557305302318e-10	2.4526627e-09	7.901196e-10	0.44443506	-1.2067202e-16	0.55502695
1.9506783677183393e-10	2.436202e-09	8.5596286e-10	0.44443512	-1.2067202e-16	0.55502725
1.9775878084198737e-10	2.5020452e-09	1.1522577e-09	0.44443512	-1.2067202e-16	0.55502874
2.0015133204908184e-10	2.5514277e-09	2.3045155e-10	0.44443518	-1.2067202e-16	0.5550291
2.0254330670434118e-10	2.534967e-09	1.1522577e-09	0.4444352	-1.2067202e-16	0.55502963
2.0523448434141376e-10	2.3045155e-09	9.218062e-10	0.4444352	-1.2067203e-16	0.5550286
2.076265714171175e-10	2.3045155e-09	1.0534927e-09	0.44443524	-1.2067203e-16	0.5550292
2.1001879131368154e-10	2.5020452e-09	6.255113e-10	0.44443524	-1.2067203e-16	0.55502933
2.1270984790904187e-10	2.617271e-09	7.571979e-10	0.44443524	-1.2067203e-16	0.5550304
2.1510213538994125e-10	2.4526627e-09	1.1687186e-09	0.44443524	-1.2067203e-16	0.5550305
2.1779325069462976e-10	2.6831144e-09	8.5596286e-10	0.44443518	-1.2067205e-16	0.55502945
2.201853125529203e-10	2.2880546e-09	9.547279e-10	0.44443518	-1.2067205e-16	0.55502963
2.22577635523887e-10	2.057603e-09	1.316866e-09	0.44443518	-1.2067205e-16	0.55502975
2.252686730393055e-10	2.2222113e-09	1.1193361e-09	0.44443518	-1.2067203e-16	0.5550309
2.2766094344037684e-10	2.534967e-09	9.547279e-10	0.44443518	-1.2067205e-16	0.5550305
2.3005279997436302e-10	2.6008102e-09	7.2427625e-10	0.44443518	-1.2067205e-16	0.5550307
2.3274418377853087e-10	2.353898e-09	1.0534927e-09	0.44443518	-1.2067206e-16	0.55502963
2.351361539518932e-10	2.419741e-09	7.2427625e-10	0.44443515	-1.2067202e-16	0.55502963
2.375283937757764e-10	2.0082205e-09	4.938247e-10	0.44443515	-1.2067203e-16	0.55503
2.4021943389152725e-10	2.0905246e-09	1.0864144e-09	0.44443515	-1.2067205e-16	0.5550304
2.4261174313619056e-10	2.2057505e-09	7.571979e-10	0.44443518	-1.2067206e-16	0.5550303
2.45003576922329e-10	1.7448474e-09	8.888845e-10	0.44443515	-1.2067205e-16	0.55502975
2.476949144971332e-10	2.0246813e-09	3.6213813e-10	0.44443515	-1.2067206e-16	0.55502975
2.5008710005539873e-10	2.3703588e-09	6.9135464e-10	0.44443512	-1.2067206e-16	0.55503
2.527781588468217e-10	2.6008102e-09	5.5966803e-10	0.44443515	-1.2067205e-16	0.55503
2.551703851074012e-10	2.4691236e-09	1.975299e-10	0.44443515	-1.2067205e-16	0.55502963
2.575622851850329e-10	2.4855844e-09	3.292165e-10	0.44443515	-1.2067203e-16	0.5550289
2.60253653530347e-10	2.0246813e-09	8.888845e-10	0.44443515	-1.2067206e-16	0.55502975
2.6264569758221005e-10	2.2222113e-09	8.5596286e-10	0.44443512	-1.2067206e-16	0.55502987
2.6503768502390725e-10	2.3045155e-09	1.0205711e-09	0.44443512	-1.2067206e-16	0.55502987
2.677287224974635e-10	2.5843494e-09	6.9135464e-10	0.44443515	-1.2067203e-16	0.55502874
2.701209952436622e-10	2.6666536e-09	8.230412e-10	0.44443512	-1.2067205e-16	0.55502886
2.725130697539843e-10	2.5678886e-09	8.888845e-10	0.44443515	-1.2067205e-16	0.5550291
2.7520418101700755e-10	2.436202e-09	8.5596286e-10	0.44443512	-1.2067205e-16	0.55502987
2.7759635251900245e-10	2.1234463e-09	1.3333268e-09	0.44443512	-1.2067206e-16	0.5550302
2.802873379479237e-10	2.115216e-09	1.218101e-09	0.44443512	-1.2067203e-16	0.5550289
2.826797829126065e-10	1.7283865e-09	9.218062e-10	0.44443512	-1.2067202e-16	0.5550289
2.850714940491015e-10	1.4814742e-09	4.938247e-10	0.44443512	-1.2067203e-16	0.5550292
2.8776279519773793e-10	1.777769e-09	1.4814742e-10	0.44443512	-1.2067202e-16	0.5550302
2.9015476727451513e-10	1.958838e-09	9.218062e-10	0.44443515	-1.2067206e-16	0.5550307
2.92547121484344e-10	2.1234463e-09	6.58433e-10	0.44443512	-1.2067205e-16	0.5550308
2.9523793489845894e-10	2.0411421e-09	4.2798143e-10	0.44443512	-1.2067202e-16	0.55502945
2.976303659416215e-10	1.9752988e-09	8.888845e-10	0.44443512	-1.2067203e-16	0.55502945
3.000221042628766e-10	2.0740638e-09	6.9135464e-10	0.44443512	-1.2067205e-16	0.55502975
3.027135979989635e-10	2.3703588e-09	5.2674637e-10	0.44443512	-1.2067202e-16	0.5550303
3.051054022732021e-10	2.4855844e-09	4.609031e-10	0.44443512	-1.2067203e-16	0.5550302
3.0779668778899653e-10	2.19752e-09	4.2798143e-10	0.44443512	-1.2067203e-16	0.55502945
3.1018870353832513e-10	2.518506e-09	3.6213813e-10	0.44443512	-1.2067202e-16	0.5550296
3.125809909544614e-10	2.3374371e-09	9.547279e-10	0.44443512	-1.2067203e-16	0.55502987
3.152717839212316e-10	2.3374371e-09	4.609031e-10	0.44443512	-1.2067203e-16	0.5550301
3.176642037746322e-10	2.353898e-09	8.230412e-10	0.44443512	-1.2067203e-16	0.55502975
3.2005577227841487e-10	2.2304416e-09	1.2016401e-09	0.44443512	-1.2067203e-16	0.55502933
3.2274741209950427e-10	2.0905246e-09	6.58433e-10	0.44443512	-1.2067203e-16	0.5550296
3.251391082148341e-10	1.9423774e-09	4.2798143e-10	0.44443512	-1.2067203e-16	0.55502963
3.2753159483976046e-10	2.3045155e-09	3.950598e-10	0.44443512	-1.2067206e-16	0.5550296
3.3022220674644667e-10	2.6501927e-09	6.255113e-10	0.44443512	-1.2067203e-16	0.55502933
3.3261479354274254e-10	2.534967e-09	7.2427625e-10	0.44443512	-1.2067203e-16	0.5550289
3.350066314397866e-10	2.1399071e-09	8.888845e-10	0.44443512	-1.2067203e-16	0.5550291
3.3769785537358743e-10	2.156368e-09	7.2427625e-10	0.44443512	-1.2067206e-16	0.55502975
3.400896967950603e-10	2.2386721e-09	5.5966803e-10	0.44443512	-1.2067203e-16	0.5550301
3.4278100266023915e-10	1.958838e-09	5.1028554e-10	0.44443512	-1.2067203e-16	0.55502886
3.451730372481628e-10	2.3045155e-09	5.5966803e-10	0.44443512	-1.2067203e-16	0.5550291
3.4756511047624914e-10	2.3703588e-09	8.5596286e-10	0.44443512	-1.2067202e-16	0.5550292
3.5025614863157723e-10	2.3703588e-09	7.2427625e-10	0.44443512	-1.2067205e-16	0.5550302
3.526483251769939e-10	2.2715938e-09	8.888845e-10	0.44443512	-1.2067205e-16	0.5550304
3.5504022756936336e-10	2.1399071e-09	9.547279e-10	0.44443512	-1.2067203e-16	0.5550304
3.577314654212716e-10	1.9506077e-09	7.571979e-10	0.44443512	-1.2067203e-16	0.5550292
3.601233352519851e-10	2.0246813e-09	6.255113e-10	0.44443512	-1.2067203e-16	0.55502945
3.6251564825647296e-10	2.296285e-09	2.6337318e-10	0.44443512	-1.2067203e-16	0.5550296
3.652066282356184e-10	2.1728288e-09	4.938247e-10	0.44443515	-1.2067206e-16	0.5550304
3.6759863260592054e-10	2.3209763e-09	6.255113e-10	0.44443512	-1.2067206e-16	0.5550307
3.70289963029975e-10	2.353898e-09	7.7365875e-10	0.44443512	-1.2067202e-16	0.5550296
3.7268190575287416e-10	2.419741e-09	6.58433e-10	0.44443512	-1.2067202e-16	0.5550296
3.750740604905761e-10	2.3292066e-09	1.218101e-09	0.44443512	-1.2067203e-16	0.5550296
3.777650998267343e-10	2.4032802e-09	5.2674637e-10	0.44443515	-1.2067203e-16	0.5550303
3.801571611015148e-10	2.4855844e-09	8.5596286e-10	0.44443515	-1.2067203e-16	0.55503
3.825493392089794e-10	2.5514277e-09	2.3045155e-10	0.44443512	-1.2067205e-16	0.5550296
3.8524028987630683e-10	2.2057505e-09	4.609031e-10	0.44443512	-1.2067206e-16	0.5550296
3.876323576360316e-10	2.4032802e-09	5.5966803e-10	0.44443512	-1.2067203e-16	0.55502987
3.9002452932459124e-10	2.3703588e-09	6.255113e-10	0.44443512	-1.2067205e-16	0.55502933
3.9271552181133525e-10	2.5020452e-09	7.901196e-10	0.44443512	-1.2067202e-16	0.5550296
3.9510761581842394e-10	2.1069855e-09	2.3045155e-10	0.44443512	-1.2067203e-16	0.5550291
3.9779863319507524e-10	2.0493727e-09	2.3045155e-10	0.44443512	-1.2067202e-16	0.5550296
4.0019083599930236e-10	1.9423774e-09	9.876495e-11	0.44443512	-1.2067202e-16	0.5550296
4.0258291036866215e-10	2.477354e-09	7.901196e-10	0.44443515	-1.2067203e-16	0.55503
4.052740203533426e-10	2.2386721e-09	4.2798143e-10	0.44443512	-1.2067203e-16	0.5550289
4.076660298037347e-10	2.1810591e-09	6.255113e-10	0.44443512	-1.2067203e-16	0.5550292
4.100579529859214e-10	2.2880546e-09	5.5966803e-10	0.44443512	-1.2067203e-16	0.5550292
4.1274920305350177e-10	2.4855844e-09	1.975299e-10	0.44443512	-1.2067205e-16	0.5550301
4.1514107428283343e-10	2.3703588e-09	3.6213813e-10	0.44443512	-1.2067205e-16	0.5550304
4.175335336886581e-10	2.5431974e-09	5.2674637e-10	0.44443512	-1.2067203e-16	0.5550305
4.202242462314742e-10	2.2715938e-09	5.5966803e-10	0.44443512	-1.2067206e-16	0.5550292
4.2261668621047016e-10	2.4526627e-09	8.5596286e-10	0.44443512	-1.2067206e-16	0.55502945
4.250083566263205e-10	2.2715938e-09	7.2427625e-10	0.44443512	-1.2067202e-16	0.55502945
4.276996720884635e-10	2.1234463e-09	8.5596286e-10	0.44443512	-1.2067203e-16	0.5550304
4.300915838145541e-10	2.1399071e-09	8.230412e-10	0.44443515	-1.2067206e-16	0.5550305
4.3278276806490077e-10	2.4855844e-09	6.9135464e-10	0.44443512	-1.2067202e-16	0.55502945
4.3517468816573047e-10	2.7407272e-09	1.6460824e-10	0.44443512	-1.2067202e-16	0.5550296
4.3756677422284626e-10	2.4691236e-09	6.58433e-10	0.44443512	-1.2067203e-16	0.55502945
4.40257800069445e-10	2.4279716e-09	5.5966803e-10	0.44443512	-1.2067206e-16	0.5550307
4.4264979040520467e-10	2.0905246e-09	4.609031e-10	0.44443512	-1.2067203e-16	0.5550303
4.4504200419284593e-10	2.436202e-09	7.2427625e-10	0.44443512	-1.2067203e-16	0.55503
4.4773300650715137e-10	2.5514277e-09	6.9135464e-10	0.44443512	-1.2067203e-16	0.5550296
4.501251897016932e-10	2.3209763e-09	9.547279e-10	0.44443512	-1.2067206e-16	0.55502933
4.5251704635464947e-10	2.0740638e-09	6.9135464e-10	0.44443512	-1.2067203e-16	0.55502933
4.5520841989203614e-10	1.9752988e-09	6.9135464e-10	0.44443512	-1.2067203e-16	0.55502987
4.576002163336558e-10	2.115216e-09	5.925897e-10	0.44443512	-1.2067202e-16	0.55502933
4.602913850178619e-10	2.3703588e-09	9.876494e-10	0.44443515	-1.2067203e-16	0.5550296
4.6268321451497164e-10	2.255133e-09	2.6337318e-10	0.44443512	-1.2067202e-16	0.55502933
4.65075511852957e-10	2.2222113e-09	5.925897e-10	0.44443512	-1.2067202e-16	0.5550296
4.677665260884306e-10	2.3045155e-09	6.255113e-10	0.44443512	-1.2067202e-16	0.5550291
4.701585918753871e-10	2.5678886e-09	6.9135464e-10	0.44443512	-1.2067202e-16	0.55502886
4.725506856084044e-10	2.6666536e-09	6.090505e-10	0.44443512	-1.2067206e-16	0.5550291
4.752416979314723e-10	2.9053355e-09	9.876495e-11	0.44443512	-1.2067206e-16	0.5550296
4.776339874136125e-10	2.6008102e-09	1.0205711e-09	0.44443512	-1.2067203e-16	0.5550302
4.800258211715286e-10	2.436202e-09	1.4156308e-09	0.44443512	-1.2067202e-16	0.5550303
4.827170018606925e-10	2.4032802e-09	9.876494e-10	0.44443512	-1.2067203e-16	0.5550292
4.851088964637717e-10	2.1399071e-09	8.5596286e-10	0.44443512	-1.2067202e-16	0.5550292
4.875011658404219e-10	2.0493727e-09	1.1522577e-09	0.44443512	-1.2067206e-16	0.55502933
4.901920526889576e-10	2.0905246e-09	1.4156308e-09	0.44443512	-1.2067205e-16	0.5550305
4.925841175550111e-10	2.156368e-09	1.975299e-10	0.44443512	-1.2067206e-16	0.5550307
4.952753329390312e-10	2.4032802e-09	6.255113e-10	0.44443512	-1.2067206e-16	0.55502933
4.976672448433555e-10	2.4855844e-09	8.5596286e-10	0.44443512	-1.2067206e-16	0.55502933
5.000596355093068e-10	2.716036e-09	9.218062e-10	0.44443512	-1.2067203e-16	0.55502933
5.027503146182944e-10	2.7489577e-09	1.2510226e-09	0.44443515	-1.2067203e-16	0.5550304
5.051424650451839e-10	2.1069855e-09	1.218101e-09	0.44443512	-1.2067206e-16	0.5550304
5.075345783172643e-10	2.0246813e-09	4.609031e-10	0.44443512	-1.2067205e-16	0.5550301
5.102255417403615e-10	1.958838e-09	7.901196e-10	0.44443512	-1.2067205e-16	0.5550296
5.126175990779088e-10	2.0740638e-09	6.58433e-10	0.4444351	-1.2067206e-16	0.55502933
5.150096589284283e-10	2.1399071e-09	2.6337318e-10	0.44443515	-1.2067203e-16	0.5550292
5.17700887838222e-10	2.2386721e-09	5.925897e-10	0.44443512	-1.2067202e-16	0.55503
5.200927548895132e-10	2.0905246e-09	9.876495e-11	0.44443515	-1.2067205e-16	0.55502963
5.227838256238524e-10	2.1399071e-09	7.2427625e-10	0.4444351	-1.2067205e-16	0.55502945
5.251757062448874e-10	2.0082205e-09	4.4444226e-10	0.44443512	-1.2067206e-16	0.55502933
5.275678474388923e-10	1.9917596e-09	1.6460824e-10	0.44443512	-1.2067205e-16	0.55502933
5.302589884084419e-10	2.534967e-09	3.950598e-10	0.44443512	-1.2067203e-16	0.55502945
5.326508788720027e-10	2.4526627e-09	5.2674637e-10	0.44443512	-1.2067202e-16	0.55502945
5.350431160748957e-10	2.2386721e-09	5.925897e-10	0.44443512	-1.2067203e-16	0.55502933
5.377340597036941e-10	2.5514277e-09	5.925897e-10	0.44443515	-1.2067206e-16	0.55502933
5.401262894094779e-10	2.7654186e-09	4.2798143e-10	0.44443512	-1.2067206e-16	0.55502975
5.425182547542092e-10	2.4691236e-09	1.975299e-10	0.44443512	-1.2067203e-16	0.5550304
5.45209318801861e-10	2.2880546e-09	3.6213813e-10	0.44443512	-1.2067206e-16	0.55502933
5.476012108198473e-10	2.419741e-09	8.888845e-10	0.44443515	-1.2067206e-16	0.5550292
5.50292450916475e-10	2.2222113e-09	6.9135464e-10	0.44443512	-1.2067205e-16	0.5550301
5.526843491534234e-10	2.4444324e-09	1.0205711e-09	0.44443512	-1.2067203e-16	0.5550303
5.550766678546576e-10	2.3374371e-09	1.1851794e-09	0.44443512	-1.2067203e-16	0.5550308
5.577674607572209e-10	2.3374371e-09	8.230412e-10	0.44443515	-1.2067205e-16	0.5550292
5.601597993658694e-10	2.1728288e-09	8.5596286e-10	0.44443512	-1.2067203e-16	0.55502945
5.625516285736757e-10	2.0246813e-09	7.901196e-10	0.44443512	-1.2067203e-16	0.55502945
5.65242663827675e-10	2.2057505e-09	5.2674637e-10	0.44443512	-1.2067202e-16	0.5550305
5.676347293210233e-10	2.419741e-09	8.888845e-10	0.44443512	-1.2067202e-16	0.5550304
5.700266574751598e-10	2.0987552e-09	1.1851794e-09	0.44443512	-1.2067206e-16	0.5550303
5.727177344208998e-10	2.4608933e-09	7.571979e-10	0.44443512	-1.2067202e-16	0.55502933
5.751097823208948e-10	1.9259165e-09	7.901196e-10	0.44443512	-1.2067206e-16	0.55502933
5.775019862686044e-10	2.1399071e-09	3.292165e-10	0.44443512	-1.2067205e-16	0.55502933
5.801929097928585e-10	2.2715938e-09	8.888845e-10	0.44443512	-1.2067203e-16	0.5550302
5.825849765503682e-10	2.5514277e-09	6.255113e-10	0.44443512	-1.2067202e-16	0.55502987
5.852761360142094e-10	2.1399071e-09	8.230412e-10	0.44443512	-1.2067206e-16	0.55502933
5.876681307074394e-10	2.518506e-09	4.609031e-10	0.44443512	-1.2067206e-16	0.55502933
5.900603553647299e-10	2.2880546e-09	6.5843296e-11	0.44443512	-1.2067203e-16	0.5550292
5.927511817470737e-10	2.353898e-09	4.2798143e-10	0.44443512	-1.2067206e-16	0.55502987
5.951434388642781e-10	2.279824e-09	9.547279e-10	0.44443512	-1.2067203e-16	0.5550291
5.975353846754114e-10	2.5843494e-09	6.090505e-10	0.44443512	-1.2067203e-16	0.5550291
6.002264301816133e-10	2.3374371e-09	9.218062e-10	0.44443512	-1.2067203e-16	0.55502933
6.026185300175089e-10	2.5020452e-09	1.1193361e-09	0.44443512	-1.2067203e-16	0.55502963
6.050104012685739e-10	2.2880546e-09	9.547279e-10	0.44443512	-1.2067203e-16	0.5550301
6.077016040410396e-10	2.0905246e-09	9.218062e-10	0.44443512	-1.2067205e-16	0.55502933
6.100935946628715e-10	2.1728288e-09	1.2510226e-09	0.44443512	-1.2067203e-16	0.5550292
6.127846554604012e-10	2.1728288e-09	1.316866e-09	0.44443512	-1.2067202e-16	0.55502975
6.151766905156268e-10	1.9917596e-09	4.609031e-10	0.44443512	-1.2067203e-16	0.5550301
6.17568761059334e-10	2.0082205e-09	8.5596286e-10	0.44443512	-1.2067205e-16	0.5550303
6.202598685368992e-10	1.9917596e-09	6.255113e-10	0.44443512	-1.2067202e-16	0.5550291
6.226518297433435e-10	2.1892896e-09	4.609031e-10	0.44443512	-1.2067203e-16	0.55502945
6.250439717468722e-10	2.1728288e-09	6.255113e-10	0.44443512	-1.2067206e-16	0.5550296
6.277349135901952e-10	2.1481377e-09	5.2674637e-10	0.44443512	-1.2067203e-16	0.5550303
6.301269535924402e-10	2.0246813e-09	9.876494e-10	0.44443512	-1.2067206e-16	0.5550305
6.325189920800752e-10	1.9259165e-09	7.2427625e-10	0.44443512	-1.2067203e-16	0.5550304
6.352100878473699e-10	2.3374371e-09	7.571979e-10	0.44443512	-1.2067202e-16	0.5550296
6.376020695869992e-10	2.2715938e-09	5.925897e-10	0.44443512	-1.2067203e-16	0.55502945
6.402931463941435e-10	2.0905246e-09	6.255113e-10	0.44443512	-1.2067205e-16	0.5550305
6.426851409214596e-10	2.1316768e-09	1.1851794e-09	0.44443512	-1.2067205e-16	0.5550303
6.450773061792383e-10	2.3374371e-09	0	0.44443512	-1.2067203e-16	0.5550302
6.477682040658283e-10	2.4855844e-09	3.950598e-10	0.44443512	-1.2067206e-16	0.55502933
6.501603902064977e-10	2.3868196e-09	5.2674637e-10	0.44443512	-1.2067206e-16	0.55502933
6.525524410803227e-10	2.3209763e-09	6.9135464e-10	0.44443512	-1.2067205e-16	0.5550292
6.552433955273924e-10	2.534967e-09	3.6213813e-10	0.44443512	-1.2067206e-16	0.5550302
6.576355324667289e-10	2.4032802e-09	7.2427625e-10	0.44443512	-1.2067203e-16	0.55502945
6.600274922355964e-10	2.255133e-09	1.0205711e-09	0.44443512	-1.2067205e-16	0.55502945
6.627186428668751e-10	2.2057505e-09	7.901196e-10	0.44443512	-1.2067203e-16	0.5550292
6.651106283449946e-10	2.255133e-09	6.255113e-10	0.44443512	-1.2067206e-16	0.55502933
6.67502687896985e-10	2.3045155e-09	4.609031e-10	0.44443512	-1.2067203e-16	0.55502975
6.701938649156463e-10	2.156368e-09	7.571979e-10	0.44443512	-1.2067203e-16	0.5550292
6.725856623085212e-10	2.0905246e-09	8.5596286e-10	0.44443512	-1.2067205e-16	0.5550292
6.752770475232616e-10	2.5020452e-09	3.292165e-10	0.44443512	-1.2067205e-16	0.5550292
6.776686859813053e-10	2.2222113e-09	7.2427625e-10	0.44443512	-1.2067203e-16	0.55502963
6.800609687036696e-10	1.9752988e-09	7.901196e-10	0.44443512	-1.2067205e-16	0.5550302
6.827518232854647e-10	1.876534e-09	8.5596286e-10	0.4444351	-1.2067205e-16	0.55502945
6.851439423457949e-10	2.1399071e-09	5.5966803e-10	0.44443512	-1.2067203e-16	0.5550291
6.875361488493545e-10	2.0082205e-09	7.901196e-10	0.44443512	-1.2067206e-16	0.55502945
6.902271167073703e-10	2.0246813e-09	4.938247e-10	0.44443512	-1.2067202e-16	0.5550303
6.926192483898312e-10	2.016451e-09	5.925897e-10	0.44443512	-1.2067203e-16	0.5550307
6.950109978849287e-10	2.5678886e-09	5.5966803e-10	0.44443515	-1.2067205e-16	0.5550305
6.977021925507326e-10	2.6008102e-09	6.9135464e-10	0.44443512	-1.2067206e-16	0.55502933
7.000942055117979e-10	2.3374371e-09	7.2427625e-10	0.44443512	-1.2067205e-16	0.55502933
7.027853007684474e-10	2.4855844e-09	7.571979e-10	0.44443512	-1.2067202e-16	0.5550309
7.051773958871053e-10	2.3456674e-09	5.925897e-10	0.44443512	-1.2067206e-16	0.5550307
7.075691726752976e-10	2.633732e-09	1.0205711e-09	0.44443512	-1.2067202e-16	0.5550303
7.102605275567235e-10	2.4608933e-09	8.5596286e-10	0.44443512	-1.2067202e-16	0.55502933
7.126522704594208e-10	2.1645985e-09	9.218062e-10	0.44443512	-1.2067203e-16	0.55502945
7.150444521973916e-10	2.1399071e-09	1.2839443e-09	0.44443512	-1.2067203e-16	0.55502933
7.177354761539402e-10	2.1399071e-09	5.925897e-10	0.44443512	-1.2067202e-16	0.5550302
7.201275563721088e-10	2.156368e-09	4.2798143e-10	0.44443512	-1.2067203e-16	0.55502987
7.22519758659784e-10	2.1069855e-09	6.58433e-10	0.44443512	-1.2067206e-16	0.5550296
7.252106291515697e-10	2.3703588e-09	1.3168659e-10	0.44443512	-1.2067203e-16	0.5550296
7.276027771105217e-10	2.0987552e-09	2.3045155e-10	0.44443512	-1.2067203e-16	0.5550291
7.302938136083694e-10	2.057603e-09	9.876494e-10	0.44443512	-1.2067202e-16	0.55503
7.326858947190597e-10	2.1234463e-09	3.950598e-10	0.44443512	-1.2067205e-16	0.55502933
7.350777987945758e-10	2.1892896e-09	5.5966803e-10	0.44443512	-1.2067205e-16	0.55502933
7.377689813143407e-10	2.1316768e-09	6.9135464e-10	0.44443515	-1.2067202e-16	0.5550291
7.401608210189017e-10	2.0740638e-09	1.6460824e-10	0.44443512	-1.2067206e-16	0.5550296
7.425529679732152e-10	2.0493727e-09	1.6460824e-10	0.44443512	-1.2067205e-16	0.5550301
7.452438077185316e-10	2.1728288e-09	7.901196e-10	0.44443512	-1.2067206e-16	0.55502933
7.476361095295825e-10	1.9423774e-09	5.5966803e-10	0.44443512	-1.2067206e-16	0.55502933
7.50028071643521e-10	2.1069855e-09	5.2674637e-10	0.4444351	-1.2067205e-16	0.55502933
7.527190792655982e-10	1.917686e-09	3.950598e-10	0.44443512	-1.2067205e-16	0.5550302
7.551112405618256e-10	2.1728288e-09	4.2798143e-10	0.44443512	-1.2067203e-16	0.5550304
7.575031154822512e-10	1.9752988e-09	1.0534927e-09	0.44443512	-1.2067202e-16	0.5550308
7.601941927212037e-10	2.0905246e-09	6.9135464e-10	0.44443512	-1.2067203e-16	0.55502933
7.625861746274815e-10	2.5843494e-09	6.255113e-10	0.44443512	-1.2067202e-16	0.55502945
7.652772640929489e-10	2.534967e-09	6.9135464e-10	0.44443512	-1.2067205e-16	0.5550304
7.67669195755748e-10	2.2715938e-09	5.2674637e-10	0.44443512	-1.2067206e-16	0.5550307
7.700615261165708e-10	2.534967e-09	4.609031e-10	0.44443512	-1.2067206e-16	0.5550303
7.727522929355932e-10	2.3868196e-09	6.9135464e-10	0.44443512	-1.2067206e-16	0.55502945
7.751445517261346e-10	1.958838e-09	6.9135464e-10	0.44443512	-1.2067206e-16	0.55502945
7.775363377206065e-10	1.958838e-09	9.876495e-11	0.44443512	-1.2067202e-16	0.5550296
7.80227543797104e-10	2.2386721e-09	-6.5843296e-11	0.44443512	-1.2067205e-16	0.5550303
7.826194320112513e-10	2.3292066e-09	3.292165e-10	0.44443512	-1.2067203e-16	0.5550301
7.850114909163905e-10	2.534967e-09	9.218062e-10	0.44443515	-1.2067205e-16	0.55502975
7.877025005658518e-10	2.5514277e-09	4.609031e-10	0.44443512	-1.2067203e-16	0.55502945
7.900946058460779e-10	2.255133e-09	6.9135464e-10	0.44443512	-1.2067205e-16	0.55502933
7.927856305897003e-10	2.3374371e-09	8.230412e-10	0.44443515	-1.2067202e-16	0.5550301
7.951776129085101e-10	2.6008102e-09	3.950598e-10	0.44443512	-1.2067203e-16	0.55502963
7.975697078818905e-10	2.534967e-09	9.218062e-10	0.44443512	-1.2067205e-16	0.55502945
8.002607004029018e-10	2.2880546e-09	1.0370319e-09	0.44443512	-1.2067206e-16	0.55502933
8.026528747609195e-10	2.436202e-09	6.58433e-10	0.44443512	-1.2067205e-16	0.55502933
8.050446803741725e-10	2.436202e-09	1.0534927e-09	0.44443515	-1.2067205e-16	0.55502975
8.077359191149217e-10	2.3209763e-09	8.5596286e-10	0.44443512	-1.2067203e-16	0.55502945
8.101278294039795e-10	2.2386721e-09	7.901196e-10	0.44443512	-1.2067206e-16	0.55502933
8.125199638890471e-10	2.1892896e-09	7.571979e-10	0.44443512	-1.2067205e-16	0.5550296
8.152110444622316e-10	2.1728288e-09	9.0534535e-10	0.44443512	-1.2067205e-16	0.55502975
8.176032011395983e-10	2.4032802e-09	6.255113e-10	0.44443512	-1.2067202e-16	0.5550304
8.202939105265433e-10	2.0411421e-09	6.9135464e-10	0.44443512	-1.2067206e-16	0.55502963
8.226861846743986e-10	2.0246813e-09	9.876494e-10	0.44443512	-1.2067202e-16	0.55502933
8.250779589081357e-10	2.4526627e-09	4.938247e-10	0.44443512	-1.2067206e-16	0.55502933
8.277692173264784e-10	2.1069855e-09	2.3045155e-10	0.44443512	-1.2067202e-16	0.5550305
8.301610156563825e-10	2.3868196e-09	4.609031e-10	0.44443512	-1.2067202e-16	0.5550304
8.325531866333301e-10	2.4444324e-09	1.975299e-10	0.4444351	-1.2067203e-16	0.5550307
8.352440339225849e-10	2.353898e-09	7.571979e-10	0.44443512	-1.2067205e-16	0.55502945
8.376363347605871e-10	2.1645985e-09	5.2674637e-10	0.44443512	-1.2067206e-16	0.5550296
8.400282561598647e-10	2.4032802e-09	6.4197214e-10	0.44443512	-1.2067206e-16	0.5550296
8.427192941679946e-10	2.3868196e-09	4.2798143e-10	0.44443512	-1.2067203e-16	0.5550305
8.451113819909703e-10	2.2386721e-09	5.925897e-10	0.44443512	-1.2067202e-16	0.5550303
8.475033178241758e-10	2.255133e-09	5.7612887e-10	0.44443512	-1.2067202e-16	0.55503
8.501942529585863e-10	2.156368e-09	2.3045155e-10	0.44443512	-1.2067202e-16	0.55502963
8.525864672540766e-10	2.3703588e-09	1.3168659e-10	0.44443512	-1.2067203e-16	0.55502945
8.55277255527983e-10	2.9629483e-09	7.2427625e-10	0.44443512	-1.2067206e-16	0.5550304
8.576696811061356e-10	2.5678886e-09	5.925897e-10	0.44443512	-1.2067203e-16	0.55503
8.600614630938386e-10	2.4279716e-09	4.609031e-10	0.44443512	-1.2067202e-16	0.55502945
8.627526832179278e-10	2.4444324e-09	1.218101e-09	0.44443512	-1.2067203e-16	0.55502933
8.651446308284032e-10	2.353898e-09	3.950598e-10	0.44443512	-1.2067202e-16	0.5550289
8.675364880897981e-10	2.7242664e-09	1.975299e-10	0.44443512	-1.2067202e-16	0.55502945
8.702275809389104e-10	2.5678886e-09	1.0205711e-09	0.44443515	-1.2067203e-16	0.55502933