# t (s)	mx ()	my ()	mz ()	E_total (J)	MaxAngle (rad)
0	9.0123015e-10	-1.5473175e-09	0.9955558	-1.2884941e-16	0.65441316
2.78695334850198e-12	1.0534927e-09	-1.3168659e-10	0.99665546	-1.2885327e-16	0.7912758
5.241133775588316e-12	1.4320917e-09	7.901196e-10	0.99718046	-1.2885113e-16	1.0130029
7.613123988440395e-12	-2.3868196e-09	-4.609031e-10	0.99747115	-1.2885694e-16	1.3735839
1.0053366585947825e-11	3.9732313e-08	2.4559549e-08	0.99782234	-1.2905091e-16	0.36066777
1.2636981557452996e-11	1.12118785e-08	1.9794141e-08	0.9978906	-1.2913001e-16	0.15900376
1.501457768228862e-11	-8.312716e-10	9.283905e-09	0.9978864	-1.2913361e-16	0.15893902
1.7502079432840162e-11	-2.2942275e-09	2.633732e-09	0.997891	-1.2913396e-16	0.15894052
2.0216790731768438e-11	-1.0329168e-09	5.349768e-11	0.99790126	-1.2913402e-16	0.15894729
2.2640106426041935e-11	-9.053453e-11	-2.6337318e-10	0.9979071	-1.29134e-16	0.15894654
2.5037024416113278e-11	2.3456675e-10	0	0.99790776	-1.29134e-16	0.15894578
2.7736625921904634e-11	9.464974e-11	1.5637783e-10	0.997905	-1.29134e-16	0.15894766
3.0131652664056583e-11	1.2345618e-10	0	0.9979024	-1.2913401e-16	0.15894352
3.252386360448184e-11	2.2016353e-10	1.3168659e-10	0.9979013	-1.2913401e-16	0.1589375
3.5224073642504884e-11	4.2592382e-10	0	0.9979016	-1.2913401e-16	0.1589375
3.761815363561939e-11	3.8888698e-10	6.5843296e-11	0.99790275	-1.2913402e-16	0.15893824
4.001940045744574e-11	5.28804e-10	1.3168659e-10	0.9979034	-1.29134e-16	0.15893939
4.2710699128792025e-11	3.8682937e-10	1.975299e-10	0.9979034	-1.2913402e-16	0.15893939
4.510819630598417e-11	2.2016353e-10	2.6337318e-10	0.99790335	-1.2913401e-16	0.15893976
4.7799011291806156e-11	5.1440074e-11	0	0.9979029	-1.2913402e-16	0.15893824
5.01944310314835e-11	1.7695385e-10	-1.1522577e-10	0.9979028	-1.2913401e-16	0.1589375
5.2585834996736193e-11	2.1193311e-10	-1.3168659e-10	0.99790287	-1.2913401e-16	0.15893824
5.528043593358369e-11	2.4896996e-10	-1.3168659e-10	0.9979029	-1.2913401e-16	0.15893824
5.7672419721933816e-11	7.613131e-11	-6.5843296e-11	0.997903	-1.29134e-16	0.15893863
6.006709255547386e-11	3.292165e-10	0	0.997903	-1.29134e-16	0.15893824
6.275835844542833e-11	4.156358e-10	6.5843296e-11	0.997903	-1.29134e-16	0.15893824
6.515217870658532e-11	3.4979253e-10	6.5843296e-11	0.997903	-1.2913401e-16	0.15893824
6.754499414556296e-11	3.559653e-10	2.016451e-10	0.9979029	-1.29134e-16	0.15893824
7.023719627394753e-11	1.3991701e-10	2.1399071e-10	0.9979029	-1.2913401e-16	0.15893863
7.263035239203617e-11	5.7612887e-11	0	0.9979029	-1.2913401e-16	0.15893824
7.502339274947449e-11	3.9094457e-11	-1.1522577e-10	0.9979029	-1.2913401e-16	0.15893824
7.771542276966993e-11	1.9135708e-10	-1.4403222e-10	0.997903	-1.2913401e-16	0.15893824
8.010865214540123e-11	2.9629485e-10	-1.3168659e-10	0.997903	-1.2913401e-16	0.15893824
8.250150865366311e-11	3.99175e-10	4.9382474e-11	0.9979029	-1.2913401e-16	0.15893863
8.519391112704084e-11	3.6419573e-10	3.292165e-10	0.9979029	-1.2913401e-16	0.15893824
8.758675763095409e-11	1.8724187e-10	2.6337318e-10	0.9979029	-1.2913401e-16	0.15893863
9.027907755444316e-11	-9.464974e-11	1.6460824e-10	0.997903	-1.2913401e-16	0.15893863
9.267192125946264e-11	-8.4361726e-11	-3.7036856e-11	0.9979029	-1.2913401e-16	0.15893863
9.506518608916658e-11	6.9958504e-11	-1.3168659e-10	0.997903	-1.2913401e-16	0.15893824
9.775714186935383e-11	3.333317e-10	-1.3168659e-10	0.99790287	-1.2913401e-16	0.15893824
1.0015024509313546e-10	3.1275565e-10	-6.5843296e-11	0.9979029	-1.2913401e-16	0.15893824
1.0254333470543551e-10	3.7036854e-10	0	0.9979029	-1.2913401e-16	0.15893863
1.0523535594758514e-10	3.1892847e-10	1.975299e-10	0.9979029	-1.2913401e-16	0.15893863
1.0762848206350444e-10	1.975299e-10	6.5843296e-11	0.9979029	-1.2913401e-16	0.15893863
1.1002135197311522e-10	1.8312667e-10	1.3168659e-10	0.997903	-1.2913401e-16	0.15893824
1.1271343347651606e-10	1.1316817e-10	0	0.9979029	-1.2913401e-16	0.15893824
1.1510625390440911e-10	1.0288015e-10	-6.5843296e-11	0.9979029	-1.2913401e-16	0.15893787
1.177985995539409e-10	2.1399071e-10	-1.3168659e-10	0.9979029	-1.2913401e-16	0.15893787
1.201913657390136e-10	3.7859896e-10	6.5843296e-11	0.9979029	-1.2913401e-16	0.15893863
1.2258450700591336e-10	3.374469e-10	6.5843296e-11	0.9979029	-1.2913401e-16	0.15893824
1.2527631165222328e-10	1.6872345e-10	2.6337318e-10	0.9979029	-1.2913401e-16	0.15893863
1.2766946297447948e-10	1.5637783e-10	1.3168659e-10	0.9979029	-1.2913401e-16	0.15893824
1.3006228008698925e-10	1.995875e-10	-6.5843296e-11	0.9979029	-1.2913401e-16	0.15893863
1.3275442739357053e-10	2.2016353e-10	0	0.99790287	-1.2913401e-16	0.15893824
1.3514712064251335e-10	1.6872345e-10	0	0.9979029	-1.2913401e-16	0.15893863
1.3753989956988127e-10	1.9135708e-10	1.3168659e-10	0.9979029	-1.2913401e-16	0.15893824
1.4023199660521895e-10	2.4691235e-10	-1.3168659e-10	0.9979029	-1.2913401e-16	0.15893824
1.4262483757902825e-10	3.312741e-10	0	0.9979029	-1.2913401e-16	0.15893787
1.4501789422498524e-10	3.4361972e-10	7.407371e-11	0.9979029	-1.2913401e-16	0.15893824
1.477098319897322e-10	2.654308e-10	1.2757138e-10	0.9979029	-1.2913401e-16	0.15893824
1.5010260972493983e-10	2.5102756e-10	1.975299e-10	0.9979029	-1.2913401e-16	0.15893787
1.5279461838932273e-10	1.6049304e-10	1.3168659e-10	0.9979029	-1.2913401e-16	0.15893824
1.5518735900431818e-10	1.9135708e-10	0	0.9979029	-1.2913401e-16	0.15893863
1.5758034619850982e-10	1.2962899e-10	-6.5843296e-11	0.99790287	-1.2913401e-16	0.15893824
1.6027211586730884e-10	1.5637783e-10	6.5843296e-11	0.9979029	-1.2913401e-16	0.15893787
1.6266511897069638e-10	2.4073957e-10	3.7036856e-11	0.9979029	-1.2913401e-16	0.15893824
1.6505765339037357e-10	2.5514277e-10	1.6872345e-10	0.9979029	-1.29134e-16	0.15893824
1.6774978303821306e-10	9.464974e-11	0	0.99790287	-1.2913401e-16	0.15893863
1.7014244999443827e-10	2.6337318e-10	1.3168659e-10	0.9979029	-1.2913401e-16	0.15893863
1.7253542377223641e-10	8.024652e-11	-6.5843296e-11	0.9979029	-1.2913401e-16	0.15893787
1.7522724625603548e-10	1.9135708e-10	-6.5843296e-11	0.9979029	-1.2913401e-16	0.15893824
1.7762023949552127e-10	2.8189162e-10	6.5843296e-11	0.997903	-1.2913401e-16	0.15893824
1.8001297924240712e-10	2.5720037e-10	1.3168659e-10	0.9979029	-1.2913401e-16	0.15893824
1.8270496436325155e-10	2.2839394e-10	6.172809e-11	0.9979029	-1.2913401e-16	0.15893824
1.8509761782562368e-10	1.6460824e-10	0	0.9979029	-1.2913401e-16	0.15893824
1.8778970522738937e-10	2.5308516e-10	1.3168659e-10	0.9979029	-1.2913401e-16	0.15893863
1.9018250463580194e-10	1.5637783e-10	1.975299e-10	0.9979029	-1.2913401e-16	0.15893824
1.9257518663876153e-10	1.2757138e-10	6.5843296e-11	0.9979029	-1.2913401e-16	0.15893824
1.9526730337039826e-10	-8.847693e-11	1.3168659e-10	0.9979029	-1.2913401e-16	0.15893863
1.9765980232972163e-10	-7.407371e-11	-6.5843296e-11	0.9979029	-1.2913401e-16	0.15893787
2.0005273838439276e-10	1.9547229e-10	-1.975299e-10	0.9979029	-1.2913401e-16	0.15893824
2.027446601268633e-10	5.658408e-10	1.3168659e-10	0.9979029	-1.2913401e-16	0.15893863
2.0513751855684029e-10	4.2180862e-10	1.975299e-10	0.9979029	-1.2913401e-16	0.15893787
2.075303455087575e-10	1.2962899e-10	6.5843296e-11	0.9979029	-1.2913401e-16	0.15893824
2.1022234783734836e-10	1.975299e-10	0	0.9979029	-1.2913401e-16	0.15893863
2.1261503764101233e-10	2.5720037e-10	0	0.9979029	-1.2913401e-16	0.15893787
2.1500772212830885e-10	2.654308e-10	1.3168659e-10	0.99790287	-1.2913401e-16	0.15893787
2.1769964676161618e-10	1.7695385e-10	1.3168659e-10	0.9979029	-1.2913401e-16	0.15893863
2.2009258098581545e-10	2.1604832e-10	-4.115206e-11	0.9979029	-1.2913401e-16	0.15893863
2.2278428509094056e-10	1.8518427e-10	-1.975299e-10	0.9979029	-1.2913401e-16	0.15893787
2.2517714368462097e-10	3.374469e-10	0	0.9979029	-1.2913401e-16	0.15893787
2.2757003989613278e-10	2.2839394e-10	1.8929948e-10	0.9979029	-1.2913401e-16	0.15893824
2.3026175647885635e-10	1.4403222e-10	1.7695385e-10	0.9979029	-1.2913401e-16	0.15893824
2.3265465820732742e-10	-2.8806443e-11	-1.975299e-10	0.997903	-1.2913401e-16	0.15893863
2.3504737957605287e-10	-1.0288015e-11	-6.5843296e-11	0.9979029	-1.2913401e-16	0.15893824
2.377392979161743e-10	1.2551378e-10	-3.292165e-10	0.9979029	-1.2913401e-16	0.15893824
2.401320449490354e-10	3.6831094e-10	-6.5843296e-11	0.9979029	-1.2913401e-16	0.15893824
2.425247818753831e-10	3.0041003e-10	-6.5843296e-11	0.9979029	-1.2913401e-16	0.15893787
2.452167491722904e-10	1.7078106e-10	1.975299e-10	0.99790287	-1.2913401e-16	0.15893863
2.476095473833448e-10	6.172809e-11	-6.5843296e-11	0.997903	-1.2913401e-16	0.15893787
2.5000222133137e-10	1.0493775e-10	-1.3168659e-10	0.9979029	-1.2913401e-16	0.15893787
2.526940394476239e-10	1.9341469e-10	-1.3168659e-10	0.9979029	-1.2913401e-16	0.15893824
2.5508674070669374e-10	3.2510128e-10	-6.5843296e-11	0.9979029	-1.2913401e-16	0.15893787
2.5777866250593456e-10	2.674884e-10	0	0.9979029	-1.2913401e-16	0.15893824
2.6017158852472383e-10	1.9135708e-10	2.6337318e-10	0.9979029	-1.2913401e-16	0.15893787
2.625643351482193e-10	1.7283866e-10	2.057603e-11	0.9979029	-1.2913401e-16	0.15893787
2.652561776361307e-10	2.69546e-10	1.3168659e-10	0.9979029	-1.2913401e-16	0.15893787
2.676489208525537e-10	2.057603e-10	6.5843296e-11	0.9979029	-1.2913401e-16	0.15893824
2.700416768021904e-10	1.4403222e-10	0	0.9979029	-1.2913401e-16	0.15893863
2.727334990973706e-10	2.4073957e-10	1.23456185e-11	0.997903	-1.2913401e-16	0.15893787
2.7512631395536625e-10	2.2633633e-11	-1.975299e-10	0.997903	-1.2913401e-16	0.15893824
2.775191300565843e-10	5.349768e-11	-2.716036e-10	0.9979029	-1.2913401e-16	0.15893824
2.802109452594658e-10	4.876519e-10	-1.3168659e-10	0.9979029	-1.2913401e-16	0.15893863
2.8260372156171505e-10	4.6501827e-10	-3.2921648e-11	0.9979029	-1.2913401e-16	0.15893863
2.8529564301161965e-10	1.8724187e-10	2.2222113e-10	0.997903	-1.2913401e-16	0.15893824
2.876881622924703e-10	6.172809e-11	2.2222113e-10	0.99790287	-1.2913401e-16	0.15893787
2.900810919968038e-10	3.9094457e-11	-6.5843296e-11	0.997903	-1.2913401e-16	0.15893824
2.9277286866768317e-10	1.8106906e-10	-1.975299e-10	0.9979029	-1.2913401e-16	0.15893863
2.951656405198474e-10	4.032902e-10	-6.5843296e-11	0.9979029	-1.2913401e-16	0.15893902
2.975584199303497e-10	3.1481326e-10	0	0.9979029	-1.2913401e-16	0.15893863
3.00250183076223e-10	1.6460824e-10	1.0699536e-10	0.9979029	-1.2913401e-16	0.15893787
3.026429155814764e-10	1.0699536e-10	0	0.9979029	-1.2913401e-16	0.15893863
3.0503567090470657e-10	1.9341469e-10	0	0.9979029	-1.2913401e-16	0.15893824
3.077276004114729e-10	1.6049304e-10	1.3168659e-10	0.9979029	-1.2913401e-16	0.15893824
3.101202839660166e-10	1.9547229e-10	0	0.9979029	-1.2913401e-16	0.15893787
3.1251310678445297e-10	2.8806443e-10	-6.5843296e-11	0.9979029	-1.2913401e-16	0.15893863
3.1520476283638047e-10	2.3662436e-10	-6.5843296e-11	0.9979029	-1.2913401e-16	0.15893863
3.175976010542813e-10	2.3045155e-10	6.5843296e-11	0.9979029	-1.2913401e-16	0.15893863
3.2028936331973396e-10	2.8189162e-10	-2.4691237e-11	0.99790287	-1.2913401e-16	0.15893824
3.226820944721095e-10	1.3168659e-10	-1.6460824e-11	0.9979029	-1.2913401e-16	0.15893824
3.250747952999174e-10	8.847693e-11	-9.876495e-11	0.99790287	-1.2913401e-16	0.15893824
3.2776665748837687e-10	2.016451e-10	1.5637783e-10	0.997903	-1.2913401e-16	0.15893824
3.3015940822107285e-10	2.098755e-10	1.3168659e-10	0.9979029	-1.2913401e-16	0.15893824
3.325519531840563e-10	1.8312667e-10	6.5843296e-11	0.9979029	-1.2913401e-16	0.15893824
3.352437854665374e-10	2.3250914e-10	2.4691237e-11	0.9979029	-1.2913401e-16	0.15893787
3.3763642718728167e-10	1.11110565e-10	-6.5843296e-11	0.9979029	-1.2913401e-16	0.15893824
3.400293457365512e-10	1.1522577e-10	1.3168659e-10	0.9979029	-1.2913401e-16	0.15893824
3.4272102140476183e-10	7.407371e-11	-6.5843296e-11	0.9979029	-1.2913401e-16	0.15893824
3.4511374477363323e-10	1.8518428e-11	-1.7283866e-10	0.99790287	-1.2913401e-16	0.15893824
3.4750658722976503e-10	2.716036e-10	-6.5843296e-11	0.99790287	-1.2913401e-16	0.15893863
3.5019839416486716e-10	2.736612e-10	6.5843296e-11	0.99790287	-1.2913401e-16	0.15893787
3.5259099689059057e-10	2.2633634e-10	2.8806443e-11	0.9979029	-1.2913401e-16	0.15893787
3.5528291378128166e-10	2.057603e-10	0	0.9979029	-1.2913401e-16	0.15893863
3.576754436621443e-10	1.8106906e-10	-6.5843296e-11	0.99790287	-1.2913401e-16	0.15893863
3.6006816498467247e-10	1.5843543e-10	-5.7612887e-11	0.99790287	-1.2913401e-16	0.15893863
3.627599743917624e-10	2.4691235e-10	1.6460824e-11	0.9979029	-1.2913401e-16	0.15893824
3.6515277274382345e-10	2.3456675e-10	6.5843296e-11	0.9979029	-1.2913401e-16	0.15893824
3.6754538878485527e-10	4.156358e-10	1.975299e-10	0.9979029	-1.2913401e-16	0.15893824
3.7023725727986035e-10	2.0370271e-10	1.975299e-10	0.9979029	-1.2913401e-16	0.15893863
3.7262994100654736e-10	8.847693e-11	6.5843296e-11	0.9979029	-1.2913401e-16	0.15893824
3.750226066521178e-10	1.4814742e-10	-2.057603e-11	0.99790287	-1.2913401e-16	0.15893787
3.7771445706071807e-10	2.9217964e-10	6.5843296e-11	0.9979029	-1.2913401e-16	0.15893824
3.8010704371385984e-10	2.4073957e-10	0	0.9979029	-1.2913401e-16	0.15893824
3.8279886786401585e-10	1.1728338e-10	1.3168659e-10	0.9979029	-1.2913401e-16	0.15893824
3.851916982517598e-10	6.172809e-11	1.3168659e-10	0.997903	-1.2913401e-16	0.15893787
3.875841434406371e-10	1.8724187e-10	0	0.9979029	-1.2913401e-16	0.15893787
3.9027616703727554e-10	1.8312667e-10	-6.5843296e-11	0.9979029	-1.2913401e-16	0.15893787
3.9266860588889753e-10	1.6872345e-10	6.5843296e-11	0.9979029	-1.2913401e-16	0.15893824
3.950613274585268e-10	1.4403222e-10	-6.5843296e-11	0.9979029	-1.2913401e-16	0.15893863
3.977531047022286e-10	2.1399071e-10	1.6460824e-11	0.997903	-1.2913401e-16	0.15893787
4.0014590991198973e-10	1.9341469e-10	1.3168659e-10	0.9979029	-1.2913401e-16	0.15893787
4.025385673502304e-10	2.654308e-10	6.5843296e-11	0.9979029	-1.2913401e-16	0.15893824
4.052301498744596e-10	2.4073957e-10	6.5843296e-11	0.9979029	-1.2913401e-16	0.15893863
4.0762302340928047e-10	4.19751e-10	1.975299e-10	0.9979029	-1.2913401e-16	0.15893824
4.1001559341832233e-10	3.4567732e-10	6.5843296e-11	0.9979029	-1.2913401e-16	0.15893824
4.1270749554342093e-10	2.4896996e-10	1.3168659e-10	0.997903	-1.2913401e-16	0.15893824
4.151000393788233e-10	3.4361972e-10	0	0.997903	-1.2913401e-16	0.15893824
4.177920514725254e-10	2.0370271e-10	1.3168659e-10	0.9979029	-1.2913401e-16	0.15893863
4.201845237484929e-10	2.674884e-11	-6.5843296e-11	0.9979029	-1.2913401e-16	0.15893863
4.225771465301808e-10	9.876495e-11	7.407371e-11	0.9979029	-1.2913401e-16	0.15893863
4.2526903678977815e-10	1.2551378e-10	-1.3168659e-10	0.997903	-1.2913401e-16	0.15893787
4.2766172912248866e-10	2.8189162e-10	-6.5843296e-11	0.9979029	-1.2913401e-16	0.15893787
4.3005434128247393e-10	3.6213813e-10	-6.5843296e-11	0.997903	-1.2913401e-16	0.15893787
4.327461545173701e-10	1.8724187e-10	0	0.9979029	-1.2913401e-16	0.15893824
4.3513869891042426e-10	2.4896996e-10	5.349768e-11	0.9979029	-1.2913401e-16	0.15893824
4.3753156239124107e-10	2.9217964e-10	4.9382474e-11	0.9979029	-1.2913401e-16	0.15893863
4.402231347755396e-10	2.3662436e-10	1.3168659e-10	0.9979029	-1.2913401e-16	0.15893863
4.426159244409417e-10	2.1193311e-10	-1.23456185e-11	0.9979029	-1.2913401e-16	0.15893787
4.450086383877254e-10	3.539077e-10	-1.3168659e-10	0.9979029	-1.2913401e-16	0.15893824
4.4770017223589696e-10	1.4814742e-10	1.3168659e-10	0.99790287	-1.2913401e-16	0.15893863
4.500931576240747e-10	1.6872345e-10	-6.5843296e-11	0.9979029	-1.2913401e-16	0.15893787
4.527847615824271e-10	3.0246763e-10	1.3168659e-10	0.9979029	-1.2913401e-16	0.15893787
4.5517747062203297e-10	2.6131558e-10	-6.5843296e-11	0.997903	-1.2913401e-16	0.15893824
4.575702624567802e-10	3.292165e-10	1.3168659e-10	0.997903	-1.2913401e-16	0.15893824
4.6026190653346467e-10	9.6707344e-11	2.6337318e-10	0.9979029	-1.2913401e-16	0.15893863
4.626545848068483e-10	2.1193311e-10	-6.5843296e-11	0.9979029	-1.2913401e-16	0.15893787
4.6504713926574107e-10	1.9341469e-10	-5.7612887e-11	0.9979029	-1.2913401e-16	0.15893824
4.677390317084468e-10	2.5514277e-10	1.23456185e-11	0.99790287	-1.2913401e-16	0.15893824
4.701315606071895e-10	2.8600683e-10	0	0.9979029	-1.2913401e-16	0.15893824
4.725242528670229e-10	2.8806443e-10	1.3168659e-10	0.9979029	-1.2913401e-16	0.15893863
4.752161376808715e-10	1.6460824e-10	0	0.9979029	-1.2913401e-16	0.15893787
4.776084835913008e-10	9.053453e-11	8.230412e-11	0.9979029	-1.2913401e-16	0.15893787
4.800016082724846e-10	1.2757138e-10	0	0.9979029	-1.2913401e-16	0.15893824
4.826928335348731e-10	1.6460824e-10	6.5843296e-11	0.9979029	-1.2913401e-16	0.15893863
4.850860167872825e-10	1.7901146e-10	1.975299e-10	0.9979029	-1.2913401e-16	0.15893824
4.877773191400565e-10	2.4485475e-10	2.6337318e-10	0.9979029	-1.2913401e-16	0.15893787
4.901704237504459e-10	1.5637783e-10	1.3168659e-10	0.99790287	-1.2913401e-16	0.15893824
4.925626924719936e-10	1.7901146e-10	1.3168659e-10	0.9979029	-1.2913401e-16	0.15893824
4.95254614359025e-10	6.9958504e-11	-6.5843296e-11	0.9979029	-1.2913401e-16	0.15893824
4.976471259220317e-10	1.7283866e-10	-6.5843296e-11	0.99790287	-1.2913401e-16	0.15893824
5.000399029557188e-10	2.69546e-10	6.5843296e-11	0.9979029	-1.2913401e-16	0.15893824
5.027316126652941e-10	1.5020502e-10	0	0.9979029	-1.2913401e-16	0.15893824
5.051241182523127e-10	-2.057603e-12	6.5843296e-11	0.9979029	-1.2913401e-16	0.15893863
5.075167934362641e-10	1.9547229e-10	0	0.9979029	-1.2913401e-16	0.15893824
5.102085016689099e-10	2.3868196e-10	9.464974e-11	0.9979029	-1.2913401e-16	0.15893824
5.126013300534086e-10	3.0452524e-10	9.876495e-11	0.99790287	-1.2913401e-16	0.15893863
5.152929447679791e-10	2.3662436e-10	1.3168659e-10	0.9979029	-1.2913401e-16	0.15893787
5.176856758705413e-10	1.975299e-10	0	0.9979029	-1.2913401e-16	0.15893824
5.200784169475845e-10	1.5020502e-10	6.5843296e-11	0.9979029	-1.2913401e-16	0.15893787
5.227699339450867e-10	2.2633634e-10	-8.230412e-11	0.997903	-1.2913401e-16	0.15893824
5.25162761668252e-10	1.8312667e-10	1.3168659e-10	0.997903	-1.2913401e-16	0.15893787
5.275552732682938e-10	1.2551378e-10	3.2921648e-11	0.9979029	-1.2913401e-16	0.15893787
5.302470345727263e-10	1.4814742e-10	6.5843296e-11	0.9979029	-1.2913401e-16	0.15893787
5.326396763234685e-10	2.1193311e-10	6.5843296e-11	0.9979029	-1.2913401e-16	0.15893863
5.350324834064252e-10	2.777764e-10	-8.641933e-11	0.9979029	-1.2913401e-16	0.15893863
5.377240079707911e-10	1.9547229e-10	2.6337318e-10	0.997903	-1.2913401e-16	0.15893824
5.401169143105849e-10	7.8188914e-11	1.975299e-10	0.9979029	-1.2913401e-16	0.15893824
5.425094322013552e-10	1.7283866e-10	0	0.997903	-1.2913401e-16	0.15893863
5.452012285122738e-10	2.2222113e-10	3.7036856e-11	0.9979029	-1.2913401e-16	0.15893824
5.475938675441311e-10	2.69546e-10	6.5843296e-11	0.9979029	-1.2913401e-16	0.15893824
5.502855217418934e-10	2.3662436e-10	0	0.997903	-1.2913401e-16	0.15893787
5.526781130909579e-10	2.3868196e-10	8.230412e-11	0.9979029	-1.2913401e-16	0.15893824
5.550708351712314e-10	1.6255064e-10	2.8806443e-11	0.99790287	-1.2913401e-16	0.15893824
5.577624876321428e-10	2.2222113e-10	-8.230412e-11	0.9979029	-1.2913401e-16	0.15893863
5.601550735389301e-10	2.3456675e-10	0	0.9979029	-1.2913401e-16	0.15893787
5.625479464988596e-10	3.539077e-10	1.975299e-10	0.9979029	-1.2913401e-16	0.15893824
5.652394340878906e-10	2.057603e-10	1.975299e-10	0.9979029	-1.2913401e-16	0.15893824
5.676323816034956e-10	1.2757138e-10	6.5843296e-11	0.997903	-1.2913401e-16	0.15893787
5.700247663690731e-10	1.5843543e-10	0	0.99790287	-1.2913401e-16	0.15893824
5.727166656896225e-10	1.0288015e-10	0	0.9979029	-1.2913401e-16	0.15893824
5.751091313730204e-10	1.7695385e-10	6.5843296e-11	0.9979029	-1.2913401e-16	0.15893824
5.775019919694319e-10	1.5843543e-10	1.1522577e-10	0.9979029	-1.2913401e-16	0.15893824
5.801934742864865e-10	2.777764e-10	1.3168659e-10	0.9979029	-1.2913401e-16	0.15893863
5.825863174135115e-10	3.0864045e-10	6.5843296e-11	0.9979029	-1.2913401e-16	0.15893863
5.852777901363398e-10	2.2633634e-10	1.3168659e-10	0.9979029	-1.2913401e-16	0.15893787
5.876706196684064e-10	1.1934098e-10	1.3168659e-10	0.9979029	-1.2913401e-16	0.15893787
5.900632773713062e-10	2.2016353e-10	6.5843296e-11	0.9979029	-1.2913401e-16	0.15893787
5.927549129625077e-10	2.9629485e-10	1.7695385e-10	0.9979029	-1.2913401e-16	0.15893824
5.951475991254255e-10	2.2633634e-10	6.5843296e-11	0.9979029	-1.2913401e-16	0.15893824
5.975401099936091e-10	2.3662436e-10	1.1522577e-10	0.9979029	-1.2913401e-16	0.15893824
6.002320549401107e-10	2.1810592e-10	1.3168659e-10	0.9979029	-1.2913401e-16	0.15893824
6.026244142521252e-10	1.5432022e-10	1.23456185e-11	0.9979029	-1.2913401e-16	0.15893863
6.050171437506252e-10	1.7695385e-10	6.5843296e-11	0.9979029	-1.2913401e-16	0.15893824
6.077087922069062e-10	8.024652e-11	-6.5843296e-11	0.9979029	-1.2913401e-16	0.15893824
6.101014560690693e-10	1.6872345e-10	6.5843296e-11	0.99790287	-1.2913401e-16	0.15893824
6.12793130460684e-10	2.2839394e-10	-3.2921648e-11	0.9979029	-1.2913401e-16	0.15893824
6.151858837251791e-10	1.6460824e-10	0	0.9979029	-1.2913401e-16	0.15893824
6.175784134365541e-10	1.975299e-10	-1.3168659e-10	0.9979029	-1.2913401e-16	0.15893787
6.202701537910014e-10	2.7983402e-10	-6.5843296e-11	0.9979029	-1.2913401e-16	0.15893863
6.226628779198101e-10	2.4279717e-10	5.349768e-11	0.9979029	-1.2913401e-16	0.15893863
6.250553945600293e-10	1.8724187e-10	1.3168659e-10	0.99790287	-1.2913401e-16	0.15893824
6.277471429056201e-10	2.6131558e-10	-6.5843296e-11	0.9979029	-1.2913401e-16	0.15893824
6.301397655252326e-10	2.2633634e-10	6.5843296e-11	0.99790287	-1.2913401e-16	0.15893824
6.325323709252303e-10	1.358018e-10	1.975299e-10	0.9979029	-1.2913401e-16	0.15893824
6.352240333006188e-10	1.6872345e-10	0	0.9979029	-1.2913401e-16	0.15893824
6.376167733828993e-10	2.9629485e-10	1.3168659e-10	0.9979029	-1.2913401e-16	0.15893787
6.400094505334446e-10	1.4814742e-10	1.3168659e-10	0.9979029	-1.2913401e-16	0.15893824
6.427010099489145e-10	1.2139859e-10	-6.5843296e-11	0.9979029	-1.2913401e-16	0.15893824
6.450938224607622e-10	2.2222113e-10	0	0.99790287	-1.2913401e-16	0.15893787
6.477851876772678e-10	2.5720037e-10	6.5843296e-11	0.9979029	-1.2913401e-16	0.15893863
6.501781346744246e-10	3.7036854e-10	6.5843296e-11	0.99790287	-1.2913401e-16	0.15893863
6.525706303908313e-10	1.9341469e-10	3.292165e-10	0.997903	-1.2913401e-16	0.15893824
6.552624632334954e-10	-2.8806443e-11	2.6337318e-10	0.9979029	-1.2913401e-16	0.15893824
6.576548310054814e-10	6.79009e-11	-1.3168659e-10	0.9979029	-1.2913401e-16	0.15893863
6.600477378762652e-10	2.736612e-10	0	0.9979029	-1.2913401e-16	0.15893824
6.627391490262991e-10	2.057603e-10	2.6337318e-10	0.997903	-1.2913401e-16	0.15893787
6.651319311726322e-10	1.5843543e-10	1.2345618e-10	0.9979029	-1.2913401e-16	0.15893863
6.675245205612272e-10	2.5925798e-10	-1.3168659e-10	0.997903	-1.2913401e-16	0.15893787
6.702163608874096e-10	3.353893e-10	0	0.9979029	-1.2913401e-16	0.15893863
6.726089614920979e-10	2.3045155e-10	0	0.9979029	-1.2913401e-16	0.15893787
6.750014360166145e-10	1.1934098e-10	1.975299e-10	0.9979029	-1.2913401e-16	0.15893824
6.776932036784927e-10	5.967049e-11	0	0.997903	-1.2913401e-16	0.15893787
6.800856607113186e-10	1.4403222e-11	-1.975299e-10	0.9979029	-1.2913401e-16	0.1589375
6.827775884596483e-10	2.0370271e-10	-1.4403222e-10	0.99790287	-1.2913401e-16	0.15893824
6.851699417450704e-10	3.4979253e-10	-6.5843296e-11	0.99790287	-1.2913401e-16	0.15893863
6.875628432643974e-10	2.098755e-10	0	0.99790287	-1.2913401e-16	0.15893863
6.902543732979441e-10	2.3456675e-10	-6.5843296e-11	0.9979029	-1.2913401e-16	0.15893787
6.926468698507958e-10	1.7695385e-10	-2.6337318e-10	0.997903	-1.2913401e-16	0.15893787
6.950396667457376e-10	3.8477177e-10	6.5843296e-11	0.9979029	-1.2913401e-16	0.15893787
6.977312662136949e-10	2.674884e-10	6.5843296e-11	0.9979029	-1.2913401e-16	0.15893824
7.001239854639126e-10	1.7901146e-10	1.8106906e-10	0.9979029	-1.2913401e-16	0.15893824
7.025165564479944e-10	6.9958504e-11	-6.5843296e-11	0.9979029	-1.2913401e-16	0.15893824
7.052082825860335e-10	1.7901146e-10	0	0.99790287	-1.2913401e-16	0.15893787
7.076008084460268e-10	2.2427873e-10	6.5843296e-11	0.9979029	-1.2913401e-16	0.15893787
7.102926236521784e-10	2.777764e-10	-1.3168659e-10	0.9979029	-1.2913401e-16	0.15893824
7.126851113920159e-10	2.5514277e-10	6.5843296e-11	0.9979029	-1.29134e-16	0.15893824
7.150778160951997e-10	2.777764e-10	1.3168659e-10	0.9979029	-1.2913401e-16	0.15893787
7.177693310973845e-10	1.9547229e-10	1.3168659e-10	0.997903	-1.2913401e-16	0.15893787
7.201621507065352e-10	1.2139859e-10	-6.5843296e-11	0.997903	-1.2913401e-16	0.15893824
7.225547120512439e-10	6.172809e-11	-1.3168659e-10	0.99790287	-1.2913401e-16	0.15893824
7.252464658572737e-10	3.8271417e-10	-6.5843296e-11	0.9979029	-1.2913401e-16	0.15893824
7.276390170496291e-10	2.6337318e-10	-6.5843296e-11	0.9979029	-1.2913401e-16	0.1589375
7.300315550232293e-10	2.674884e-10	-6.5843296e-11	0.9979029	-1.2913401e-16	0.15893787
7.327232990984219e-10	2.3456675e-10	0	0.997903	-1.2913401e-16	0.15893824
7.351158145323663e-10	2.2839394e-10	0	0.9979029	-1.2913401e-16	0.15893824
7.375087485949376e-10	4.4649986e-10	0	0.9979029	-1.2913401e-16	0.15893863
7.402000771504291e-10	2.4691235e-10	1.3168659e-10	0.9979029	-1.2913401e-16	0.15893863
7.425929668552243e-10	1.7695385e-10	2.3868196e-10	0.9979029	-1.2913401e-16	0.15893787
7.452843273338851e-10	1.1728338e-10	6.5843296e-11	0.99790287	-1.2913401e-16	0.15893824
7.476772312089254e-10	1.11110565e-10	6.5843296e-11	0.9979029	-1.2913401e-16	0.15893787
7.500696939557795e-10	5.5555283e-11	6.5843296e-11	0.9979029	-1.2913401e-16	0.15893824
7.527614499329059e-10	1.1934098e-10	9.053453e-11	0.9979029	-1.2913401e-16	0.15893824
7.551539843335241e-10	1.8312667e-10	-6.5843296e-11	0.9979029	-1.2913401e-16	0.15893787
7.575468127161643e-10	2.7983402e-10	-6.5843296e-11	0.9979029	-1.2913401e-16	0.1589375
7.602383653847842e-10	1.7901146e-10	6.5843296e-11	0.9979029	-1.2913401e-16	0.15893863
7.626310546774219e-10	2.2633633e-11	7.407371e-11	0.9979029	-1.2913401e-16	0.15893863
7.650234407908987e-10	1.5020502e-10	1.1934098e-10	0.9979029	-1.2913401e-16	0.15893824
7.67715308775457e-10	9.2592135e-11	2.4691237e-11	0.9979029	-1.2913401e-16	0.15893787
7.701077079811768e-10	1.7489626e-10	3.7036856e-11	0.9979029	-1.2913401e-16	0.15893787
7.725005685455496e-10	3.8271417e-10	6.5843296e-11	0.9979029	-1.2913401e-16	0.15893787
7.751919782596914e-10	1.975299e-10	1.6872345e-10	0.9979029	-1.2913401e-16	0.15893863
7.775848707258863e-10	1.6666585e-10	1.975299e-10	0.9979029	-1.2913401e-16	0.15893824
7.802761713131789e-10	1.7489626e-10	1.358018e-10	0.9979029	-1.2913401e-16	0.15893824
7.826691371221306e-10	2.4896996e-10	0	0.9979029	-1.2913401e-16	0.15893863
7.850616001292878e-10	6.5843296e-11	-1.3168659e-10	0.9979029	-1.2913401e-16	0.15893902
7.877532356857212e-10	2.2839394e-10	-6.5843296e-11	0.9979029	-1.2913401e-16	0.15893824
7.901459042040078e-10	1.975299e-10	6.5843296e-11	0.997903	-1.2913401e-16	0.15893863
7.92538531809689e-10	3.415621e-10	6.5843296e-11	0.997903	-1.2913401e-16	0.15893824
7.952300259316052e-10	2.9629485e-10	-8.230412e-12	0.9979029	-1.2913401e-16	0.15893824
7.976228491469389e-10	2.8806443e-10	-8.230412e-12	0.9979029	-1.2913401e-16	0.15893824
8.000153609993185e-10	7.201611e-11	2.6337318e-10	0.9979029	-1.2913401e-16	0.15893824
8.027071119427187e-10	9.2592135e-11	4.9382474e-11	0.9979029	-1.2913401e-16	0.15893787
8.05099602212296e-10	1.8518427e-10	6.5843296e-11	0.9979029	-1.2913401e-16	0.15893787
8.077913904025904e-10	1.5020502e-10	6.5843296e-11	0.9979029	-1.2913401e-16	0.15893787
8.10183873393622e-10	2.4691235e-10	-1.3168659e-10	0.9979029	-1.2913401e-16	0.15893863
8.125764729259509e-10	1.8518427e-10	-1.3168659e-10	0.9979029	-1.2913401e-16	0.15893863
8.152682416105826e-10	2.9835245e-10	6.5843296e-11	0.99790287	-1.2913401e-16	0.15893824
8.176607732657875e-10	3.7448375e-10	2.6337318e-10	0.997903	-1.2913401e-16	0.15893824
8.200533499481496e-10	1.0493775e-10	1.6872345e-10	0.997903	-1.2913401e-16	0.15893787
8.227449773556286e-10	1.2962899e-10	1.3168659e-10	0.9979029	-1.2913401e-16	0.15893863
8.251378009789144e-10	1.7695385e-10	-4.9382474e-11	0.9979029	-1.2913401e-16	0.15893863
8.275302945438015e-10	6.5843296e-11	0	0.9979029	-1.29134e-16	0.15893824
8.302219591568711e-10	1.6049304e-10	2.4691237e-11	0.9979029	-1.2913401e-16	0.15893787
8.326145382883286e-10	2.1193311e-10	-2.6337318e-10	0.9979029	-1.2913401e-16	0.15893787
8.350070058789383e-10	3.0658284e-10	-1.3168659e-10	0.997903	-1.2913401e-16	0.15893824
8.376988448794166e-10	4.135782e-10	6.5843296e-11	0.9979029	-1.2913401e-16	0.15893824
8.40091306539357e-10	2.8600683e-10	1.1934098e-10	0.9979029	-1.2913401e-16	0.15893863
8.427830652950052e-10	2.2016353e-10	2.716036e-10	0.99790287	-1.2913401e-16	0.1589375
8.451756475643133e-10	1.2757138e-10	2.4691235e-10	0.99790287	-1.2913401e-16	0.15893824
8.475683305474276e-10	1.3991701e-10	-6.5843296e-11	0.997903	-1.2913401e-16	0.15893824
8.502598726833812e-10	6.9958504e-11	-1.3168659e-10	0.9979029	-1.2913401e-16	0.15893863
8.526525024015033e-10	2.674884e-10	0	0.9979029	-1.2913401e-16	0.15893824
8.550449799447135e-10	3.0041003e-10	9.053453e-11	0.9979029	-1.2913401e-16	0.15893824
8.577367481941203e-10	3.559653e-10	0	0.997903	-1.2913401e-16	0.15893824
8.601292250602312e-10	3.4361972e-10	1.3168659e-10	0.9979029	-1.2913401e-16	0.15893787
8.625220014767965e-10	3.292165e-10	6.5843296e-11	0.9979029	-1.2913401e-16	0.15893824
8.652135036835916e-10	9.2592135e-11	-1.3168659e-10	0.9979029	-1.2913401e-16	0.15893824
8.676061614264116e-10	2.1193311e-10	0	0.9979029	-1.2913401e-16	0.15893824
8.702977882451808e-10	2.4896996e-10	-6.5843296e-11	0.99790287	-1.2913401e-16	0.15893824
8.726904304457411e-10	2.4485475e-10	0	0.9979029	-1.2913401e-16	0.15893824
8.75083023709239e-10	2.6131558e-10	0	0.9979029	-1.2913401e-16	0.15893824
8.777747477038611e-10	0	1.3168659e-10	0.9979029	-1.2913401e-16	0.15893787
8.801673491822222e-10	-1.23456185e-11	1.23456185e-11	0.9979029	-1.2913401e-16	0.15893824
8.825597965998033e-10	1.9135708e-10	-1.4403222e-10	0.9979029	-1.2913401e-16	0.15893863
8.852515158930265e-10	2.757188e-10	-3.2921648e-11	0.9979029	-1.2913401e-16	0.15893824
8.876442419789337e-10	2.777764e-10	0	0.9979029	-1.2913401e-16	0.15893863