# t (s)	mx ()	my ()	mz ()	E_total (J)	MaxAngle (rad)
0	1.0699536e-09	1.6460824e-10	0.97953576	-2.0725773e-17	0.26627403
2.5240210530058517e-12	2.436202e-09	1.6460824e-09	0.9618298	-2.0487583e-17	0.24066685
5.044452895371229e-12	1.3827093e-09	5.4073808e-09	0.94958955	-1.9906293e-17	0.2291856
7.514148777985666e-12	-3.917676e-09	9.3497485e-09	0.9430469	-1.9175287e-17	0.22772518
1.003406954434124e-11	-1.5934077e-08	4.872404e-09	0.92370343	-1.8217195e-17	0.22856112
1.250434234538964e-11	-2.4230333e-08	-1.5012272e-08	0.86388427	-1.6213307e-17	0.23080766
1.5019798224900117e-11	-1.1621342e-08	-5.2147893e-08	0.7071348	-1.2085386e-17	0.23065987
1.7534517473975153e-11	-3.5226164e-09	-9.613122e-08	0.3752484	-8.09498e-18	0.22476245
2.0003207866450694e-11	-6.2419446e-08	-7.5324735e-08	-0.039932124	-8.764867e-18	0.2114791
2.2527477451449396e-11	-3.8214625e-07	3.0208903e-07	-0.37076375	-1.0773369e-17	0.20200908
2.500831111503233e-11	-1.0312377e-06	-3.9505976e-09	-0.6201546	-1.1629294e-17	0.46089327
2.7502289432298423e-11	3.5588303e-07	-1.484503e-06	-0.8314109	-1.2810498e-17	0.28831866
3.004030002615207e-11	1.859283e-06	-1.4289312e-06	-0.9560142	-1.5679331e-17	0.1449403
3.252106710752037e-11	9.1087617e-07	-1.0553364e-06	-0.9894392	-1.7024297e-17	0.09277458
3.504945462671806e-11	1.3000759e-07	-5.4450965e-07	-0.9947505	-1.726277e-17	0.09278294
3.752791655259517e-11	-6.363754e-08	-2.0549693e-07	-0.9954368	-1.729196e-17	0.09277201
4.0006074517823214e-11	-6.194208e-08	-5.4427716e-08	-0.9955248	-1.7295215e-17	0.092784874
4.2533508113818323e-11	-3.058421e-08	-5.0040905e-09	-0.9955355	-1.7295498e-17	0.09278423
4.5011145270549676e-11	-1.0534928e-08	4.1481276e-09	-0.99553496	-1.729547e-17	0.09278037
4.7538133092166047e-11	-2.0740638e-09	2.5020452e-09	-0.99553317	-1.7295473e-17	0.09278101
5.00154117357495e-11	-6.5843296e-11	1.2510226e-09	-0.99553263	-1.7295501e-17	0.092782296
5.2542097997534365e-11	8.230412e-10	-5.2674637e-10	-0.99553293	-1.7295514e-17	0.092782296
5.5019155249942385e-11	5.2674637e-10	-1.5802392e-09	-0.9955331	-1.7295513e-17	0.092782296
5.7545669145560755e-11	3.6213813e-10	-1.5802392e-09	-0.99553317	-1.7295513e-17	0.092782296
6.002262328482665e-11	-3.2921648e-11	-8.5596286e-10	-0.99553317	-1.7295511e-17	0.09278294
6.254906463238016e-11	-2.4691235e-10	-3.950598e-10	-0.99553317	-1.729551e-17	0.09278294
6.502593203699251e-11	-3.950598e-10	-4.609031e-10	-0.99553317	-1.7295511e-17	0.092782296
6.750275645780418e-11	2.3045155e-10	-3.950598e-10	-0.99553317	-1.7295511e-17	0.092782296
7.002910363504069e-11	2.3045155e-10	-4.115206e-10	-0.99553317	-1.7295511e-17	0.09278294
7.250592076108816e-11	2.6337318e-10	-4.609031e-10	-0.99553317	-1.729551e-17	0.092781655
7.503223833499492e-11	2.3045155e-10	-4.609031e-10	-0.99553317	-1.7295511e-17	0.092782296
7.750900940505622e-11	3.2921648e-11	-5.2674637e-10	-0.99553317	-1.7295511e-17	0.092781655
8.003527422214111e-11	-3.2921648e-11	-4.609031e-10	-0.99553317	-1.7295511e-17	0.092781655
8.251201074527027e-11	-3.2921648e-11	-3.292165e-10	-0.99553317	-1.7295511e-17	0.092782296
8.503824909885583e-11	6.5843296e-11	-1.3168659e-10	-0.99553317	-1.7295511e-17	0.092781655
8.751494536778788e-11	-2.3045155e-10	-2.6337318e-10	-0.99553317	-1.729551e-17	0.092782296
9.004115262724365e-11	0	-3.2921648e-11	-0.99553317	-1.729551e-17	0.092782296
9.251783032715289e-11	9.876495e-11	-4.609031e-10	-0.99553317	-1.729551e-17	0.092782296
9.504398709735877e-11	2.1399071e-10	-2.6337318e-10	-0.99553317	-1.7295511e-17	0.092782296
9.75206018251507e-11	3.6213813e-10	-4.609031e-10	-0.99553317	-1.729551e-17	0.09278294
1.0004675135770463e-10	1.3168659e-10	-6.58433e-10	-0.99553317	-1.729551e-17	0.092781655
1.0252332040709184e-10	0	-6.58433e-10	-0.99553317	-1.7295511e-17	0.092782296
1.0504941994767424e-10	-3.2921648e-11	-1.975299e-10	-0.99553317	-1.7295511e-17	0.092782296
1.0752595604707309e-10	3.1275565e-10	-2.1399071e-10	-0.99553317	-1.7295511e-17	0.092782296
1.1000247611391974e-10	2.9629485e-10	-5.1028554e-10	-0.99553317	-1.729551e-17	0.09278294
1.1252849159519374e-10	9.876495e-11	-2.6337318e-10	-0.99553317	-1.7295511e-17	0.092781655
1.1500497334395647e-10	6.5843296e-11	-5.2674637e-10	-0.99553317	-1.729551e-17	0.092782296
1.1753096729921625e-10	-3.2921648e-11	-3.292165e-10	-0.99553317	-1.7295511e-17	0.092781655
1.200074155825014e-10	-3.2921648e-11	-5.2674637e-10	-0.99553317	-1.7295511e-17	0.092782296
1.225333643797429e-10	9.876495e-11	-2.6337318e-10	-0.99553317	-1.7295508e-17	0.092782296
1.2500978601037234e-10	2.3045155e-10	-5.2674637e-10	-0.99553317	-1.7295511e-17	0.092782296
1.2753571199559186e-10	9.876495e-11	-6.4197214e-10	-0.99553317	-1.729551e-17	0.092782296
1.3001209980028238e-10	3.2921648e-11	-4.609031e-10	-0.99553317	-1.7295511e-17	0.09278294
1.3253802166507976e-10	2.3045155e-10	-4.938247e-10	-0.99553317	-1.729551e-17	0.09278294
1.3501439475051506e-10	3.950598e-10	-5.2674637e-10	-0.99553317	-1.729551e-17	0.092782296
1.3754029678038854e-10	1.3168659e-10	-5.925897e-10	-0.99553317	-1.729551e-17	0.092782296
1.400166593637621e-10	1.1522577e-10	-4.609031e-10	-0.99553317	-1.7295511e-17	0.09278294
1.4254253644576871e-10	1.3168659e-10	-5.925897e-10	-0.99553317	-1.7295511e-17	0.09278294
1.4501889775015007e-10	-1.6460824e-10	-1.975299e-10	-0.99553317	-1.729551e-17	0.092782296
1.4754477129014767e-10	1.975299e-10	-5.2674637e-10	-0.99553317	-1.7295511e-17	0.092782296
1.500211192560577e-10	9.876495e-11	-4.115206e-10	-0.99553317	-1.729551e-17	0.092782296
1.525469813498571e-10	-1.6460824e-11	-4.609031e-10	-0.99553317	-1.729551e-17	0.09278294
1.5502333936461345e-10	1.1522577e-10	-3.950598e-10	-0.99553317	-1.7295511e-17	0.092782296
1.5754919324995954e-10	-6.5843296e-11	-3.950598e-10	-0.99553317	-1.729551e-17	0.09278294
1.6002552143535057e-10	-1.8106906e-10	-2.6337318e-10	-0.99553317	-1.7295511e-17	0.092782296
1.625018638228054e-10	-1.975299e-10	-4.609031e-10	-0.99553317	-1.7295511e-17	0.092782296
1.650277144289903e-10	1.3168659e-10	-3.950598e-10	-0.99553317	-1.7295511e-17	0.09278294
1.6750403168747283e-10	3.7859896e-10	-5.2674637e-10	-0.99553317	-1.7295511e-17	0.092781655
1.7002987956677885e-10	3.2921648e-11	-5.925897e-10	-0.99553317	-1.7295511e-17	0.092782296
1.725061964367828e-10	-1.3168659e-10	-5.2674637e-10	-0.99553317	-1.7295511e-17	0.09278294
1.7503202892509814e-10	-6.5843296e-11	-6.5843296e-11	-0.99553317	-1.7295511e-17	0.092782296
1.7750834236755163e-10	-1.3168659e-10	-5.925897e-10	-0.99553317	-1.7295511e-17	0.09278294
1.8003417360562848e-10	-6.5843296e-11	-5.925897e-10	-0.99553317	-1.7295511e-17	0.09278294
1.8251046396430104e-10	3.2921648e-11	-4.609031e-10	-0.99553317	-1.7295511e-17	0.092781655
1.8503629885039258e-10	-6.5843296e-11	-2.6337318e-10	-0.99553317	-1.7295511e-17	0.09278294
1.8751259192136896e-10	-1.6460824e-10	-2.6337318e-10	-0.99553317	-1.7295511e-17	0.092782296
1.900384105457809e-10	-2.7983402e-10	-5.925897e-10	-0.99553317	-1.7295511e-17	0.09278294
1.9251471137939776e-10	-1.3168659e-10	-1.975299e-10	-0.99553317	-1.7295511e-17	0.09278294
1.9504051359298434e-10	-3.2921648e-11	-4.2798143e-10	-0.99553317	-1.729551e-17	0.092782296
1.9751680102881206e-10	8.230412e-11	-3.950598e-10	-0.99553317	-1.7295511e-17	0.09278294
2.000426191229616e-10	6.5843296e-11	-3.6213813e-10	-0.99553317	-1.729551e-17	0.092782296
2.0251888600748865e-10	-9.876495e-11	-5.2674637e-10	-0.99553317	-1.729551e-17	0.092782296
2.0504468401672615e-10	1.6460824e-10	-5.2674637e-10	-0.99553317	-1.729551e-17	0.092782296
2.0752095871474528e-10	6.5843296e-11	-5.925897e-10	-0.99553317	-1.7295511e-17	0.092782296
2.1004676512472596e-10	-6.5843296e-11	-5.2674637e-10	-0.99553317	-1.729551e-17	0.09278294
2.125230226954644e-10	4.9382474e-11	-5.5966803e-10	-0.99553317	-1.7295511e-17	0.09278294
2.1504882403616658e-10	-3.2921648e-11	-4.609031e-10	-0.99553317	-1.729551e-17	0.092781655
2.1752509977827774e-10	1.8106906e-10	-3.950598e-10	-0.99553317	-1.7295511e-17	0.092781655
2.2000136281715155e-10	1.6460824e-11	-2.6337318e-10	-0.99553317	-1.7295511e-17	0.092781655
2.2252715786800083e-10	3.2921648e-11	-2.6337318e-10	-0.99553317	-1.7295511e-17	0.092782296
2.250034283616944e-10	2.3045155e-10	-5.432072e-10	-0.99553317	-1.7295508e-17	0.092782296
2.2752920564045838e-10	9.876495e-11	-4.2798143e-10	-0.99553317	-1.7295511e-17	0.09278294
2.3000545881774674e-10	1.975299e-10	-3.950598e-10	-0.99553317	-1.7295511e-17	0.09278294
2.3253124464597338e-10	1.3168659e-10	-3.4567732e-10	-0.99553317	-1.7295511e-17	0.092782296
2.3500750909970745e-10	3.2921648e-11	-3.292165e-10	-0.99553317	-1.7295511e-17	0.09278101
2.3753328963981876e-10	8.230412e-11	-2.6337318e-10	-0.99553317	-1.7295511e-17	0.09278294
2.4000953619759e-10	-6.5843296e-11	-5.925897e-10	-0.99553317	-1.729551e-17	0.092781655
2.4253532873754206e-10	9.876495e-11	-2.6337318e-10	-0.99553317	-1.7295511e-17	0.092782296
2.4501157883098904e-10	6.5843296e-11	-6.58433e-10	-0.99553317	-1.7295511e-17	0.092782296
2.475373534343832e-10	-1.3168659e-10	-5.925897e-10	-0.99553317	-1.7295511e-17	0.092782296
2.500136126307871e-10	1.1522577e-10	-7.2427625e-10	-0.99553317	-1.7295511e-17	0.092782296
2.525393965087618e-10	1.6460824e-11	-5.2674637e-10	-0.99553317	-1.7295511e-17	0.092782296
2.550156508853981e-10	-4.9382474e-11	-4.609031e-10	-0.99553317	-1.7295511e-17	0.092781655
2.5754142569732433e-10	3.2921648e-11	-3.6213813e-10	-0.99553317	-1.729551e-17	0.09278294
2.6001767579113615e-10	9.876495e-11	-5.2674637e-10	-0.99553317	-1.7295511e-17	0.092782296
2.6254345413445443e-10	1.975299e-10	-4.609031e-10	-0.99553317	-1.7295511e-17	0.09278294
2.650197004316111e-10	1.6460824e-10	-1.3168659e-10	-0.99553317	-1.7295511e-17	0.09278294
2.67545481018922e-10	9.876495e-11	-5.2674637e-10	-0.99553317	-1.729551e-17	0.092782296
2.700217388479948e-10	2.3045155e-10	-5.2674637e-10	-0.99553317	-1.7295511e-17	0.092782296
2.7254751337648775e-10	-6.5843296e-11	-3.292165e-10	-0.99553317	-1.7295511e-17	0.092782296
2.7502376962991184e-10	1.3168659e-10	-3.950598e-10	-0.99553317	-1.7295511e-17	0.09278294
2.7750001744212636e-10	2.1399071e-10	-1.6460824e-10	-0.99553317	-1.7295511e-17	0.09278294
2.8002578213313086e-10	1.3168659e-10	-5.7612887e-10	-0.99553317	-1.729551e-17	0.092782296
2.8250202691614945e-10	1.3168659e-10	-5.432072e-10	-0.99553317	-1.7295508e-17	0.092782296
2.850278113669928e-10	-2.6337318e-10	-2.6337318e-10	-0.99553317	-1.7295511e-17	0.092781655
2.875040561695108e-10	1.6460824e-10	-2.6337318e-10	-0.99553317	-1.7295511e-17	0.09278294
2.9002981028157415e-10	-9.876495e-11	-5.2674637e-10	-0.99553317	-1.7295511e-17	0.09278294
2.925060736825793e-10	3.2921648e-11	-3.950598e-10	-0.99553317	-1.729551e-17	0.092782296
2.950318500592739e-10	-2.3045155e-10	-5.2674637e-10	-0.99553317	-1.7295511e-17	0.092782296
2.9750810765705806e-10	-6.5843296e-11	-3.950598e-10	-0.99553317	-1.7295511e-17	0.092782296
3.0003386986117523e-10	8.230412e-11	-5.2674637e-10	-0.99553317	-1.7295511e-17	0.09278294
3.025101102684778e-10	2.3045155e-10	-3.1275565e-10	-0.99553317	-1.729551e-17	0.092782296
3.0503588991426336e-10	1.975299e-10	-1.975299e-10	-0.99553317	-1.7295508e-17	0.09278294
3.0751213582087967e-10	-1.3168659e-10	-5.925897e-10	-0.99553317	-1.7295511e-17	0.092782296
3.1003790629592347e-10	1.3168659e-10	-4.609031e-10	-0.99553317	-1.7295511e-17	0.092782296
3.1251415621077315e-10	2.9629485e-10	-5.925897e-10	-0.99553317	-1.7295511e-17	0.092782296
3.150399389783564e-10	-3.2921648e-11	-5.2674637e-10	-0.99553317	-1.729551e-17	0.092783585
3.175161930891045e-10	-1.3168659e-10	-3.950598e-10	-0.99553317	-1.7295511e-17	0.09278294
3.2004195899952966e-10	1.3168659e-10	-1.3168659e-10	-0.99553317	-1.729551e-17	0.092782296
3.2251820610273345e-10	2.9629485e-10	-3.6213813e-10	-0.99553317	-1.7295511e-17	0.09278294
3.250439711779957e-10	9.876495e-11	-4.609031e-10	-0.99553317	-1.7295508e-17	0.09278294
3.2752021640570654e-10	6.5843296e-11	-6.58433e-10	-0.99553317	-1.7295511e-17	0.09278294
3.3004598433792863e-10	2.9629485e-10	0	-0.99553317	-1.729551e-17	0.092782296
3.3252222164082464e-10	1.6460824e-10	-4.938247e-10	-0.99553317	-1.7295511e-17	0.092782296
3.35047993221351e-10	6.5843296e-11	-6.58433e-10	-0.99553317	-1.729551e-17	0.09278294
3.375242469571143e-10	3.2921648e-11	-4.2798143e-10	-0.99553317	-1.729551e-17	0.09278294
3.400004924302128e-10	0	-5.925897e-10	-0.99553317	-1.7295511e-17	0.09278294
3.425262662216806e-10	8.230412e-11	-5.925897e-10	-0.99553317	-1.729551e-17	0.092782296
3.450025218378607e-10	3.2921648e-11	-3.950598e-10	-0.99553317	-1.7295511e-17	0.092782296
3.475282832410424e-10	1.3168659e-10	-5.925897e-10	-0.99553317	-1.7295511e-17	0.09278294
3.500045280623805e-10	0	-3.292165e-10	-0.99553317	-1.729551e-17	0.092782296
3.5253031424607913e-10	1.6460824e-10	-5.2674637e-10	-0.99553317	-1.7295511e-17	0.092782296
3.550065464642306e-10	-1.6460824e-10	-5.925897e-10	-0.99553317	-1.7295511e-17	0.092782296
3.575323259488747e-10	1.3168659e-10	-4.609031e-10	-0.99553317	-1.7295511e-17	0.092782296
3.60008566903889e-10	-1.6460824e-10	-5.2674637e-10	-0.99553317	-1.7295508e-17	0.092782296
3.6253433917334505e-10	-6.5843296e-11	-5.2674637e-10	-0.99553317	-1.7295511e-17	0.092782296
3.65010577086643e-10	-1.3168659e-10	-3.950598e-10	-0.99553317	-1.729551e-17	0.092782296
3.675363506515226e-10	2.3045155e-10	-2.7983402e-10	-0.99553317	-1.7295511e-17	0.09278294
3.7001259562941453e-10	2.6337318e-10	-2.6337318e-10	-0.99553317	-1.7295511e-17	0.092782296
3.725383569393671e-10	-3.2921648e-11	-6.58433e-10	-0.99553317	-1.729551e-17	0.092781655
3.750146150586109e-10	0	-6.255113e-10	-0.99553317	-1.7295511e-17	0.09278294
3.775403875983896e-10	-1.3168659e-10	-5.2674637e-10	-0.99553317	-1.729551e-17	0.092782296
3.800166323156757e-10	-3.292165e-10	-5.2674637e-10	-0.99553317	-1.729551e-17	0.092782296
3.8254239896519746e-10	0	-3.292165e-10	-0.99553317	-1.7295511e-17	0.09278294
3.850186416045369e-10	1.6460824e-10	-6.5843296e-11	-0.99553317	-1.7295508e-17	0.092783585
3.875444192283543e-10	1.6460824e-11	-5.2674637e-10	-0.99553317	-1.7295511e-17	0.092781655
3.9002066963679e-10	0	-3.950598e-10	-0.99553317	-1.7295511e-17	0.09278294
3.925464419214947e-10	2.7983402e-10	-6.255113e-10	-0.99553317	-1.7295508e-17	0.09278294
3.950226893933582e-10	3.6213813e-10	-5.925897e-10	-0.99553317	-1.7295511e-17	0.092782296
3.975484631570412e-10	3.6213813e-10	-5.2674637e-10	-0.99553317	-1.7295511e-17	0.092782296
4.000247079793776e-10	2.6337318e-10	-1.975299e-10	-0.99553317	-1.7295511e-17	0.09278294
4.025009588196573e-10	1.975299e-10	-6.58433e-10	-0.99553317	-1.7295511e-17	0.09278294
4.050267283158494e-10	-3.2921648e-11	-4.609031e-10	-0.99553317	-1.7295511e-17	0.09278294
4.075029740899096e-10	-9.876495e-11	-1.975299e-10	-0.99553317	-1.7295511e-17	0.09278294
4.1002874155557513e-10	9.876495e-11	-4.609031e-10	-0.99553317	-1.7295511e-17	0.09278294
4.125049772066471e-10	9.876495e-11	-6.58433e-10	-0.99553317	-1.729551e-17	0.09278294
4.1503075833907953e-10	0	-3.950598e-10	-0.99553317	-1.729551e-17	0.09278294
4.1750701194729934e-10	-3.2921648e-11	-5.2674637e-10	-0.99553317	-1.729551e-17	0.092781655
4.200327857238472e-10	-2.3045155e-10	-5.2674637e-10	-0.99553317	-1.7295511e-17	0.092782296
4.225090163431959e-10	-1.6460824e-11	-3.950598e-10	-0.99553317	-1.729551e-17	0.092782296
4.250347967245366e-10	0	-5.2674637e-10	-0.99553317	-1.7295511e-17	0.092782296
4.275110374395081e-10	9.876495e-11	-6.58433e-10	-0.99553317	-1.7295511e-17	0.09278294
4.300368079678797e-10	8.230412e-11	-4.938247e-10	-0.99553317	-1.7295511e-17	0.092782296
4.325130507867975e-10	1.975299e-10	-6.58433e-10	-0.99553317	-1.7295511e-17	0.09278294
4.350388288267917e-10	1.6460824e-10	-5.925897e-10	-0.99553317	-1.7295511e-17	0.092782296
4.3751508048548027e-10	1.3168659e-10	-6.4197214e-10	-0.99553317	-1.7295511e-17	0.09278294
4.400408452275401e-10	8.230412e-11	-3.950598e-10	-0.99553317	-1.7295511e-17	0.092782296
4.425170844091351e-10	3.2921648e-11	-3.950598e-10	-0.99553317	-1.7295511e-17	0.09278294
4.4504285215572033e-10	0	-4.773639e-10	-0.99553317	-1.7295511e-17	0.092782296
4.4751910488797924e-10	9.876495e-11	-2.6337318e-10	-0.99553317	-1.7295511e-17	0.092782296
4.5004488451316815e-10	-1.6460824e-11	-3.950598e-10	-0.99553317	-1.7295511e-17	0.09278294
4.525211263683318e-10	2.7983402e-10	-2.9629485e-10	-0.99553317	-1.729551e-17	0.092782296
4.550468946150116e-10	-3.2921648e-11	-5.925897e-10	-0.99553317	-1.7295511e-17	0.09278294
4.5752314238838064e-10	-6.5843296e-11	-1.975299e-10	-0.99553317	-1.7295511e-17	0.092781655
4.60048910954954e-10	-1.6460824e-10	-6.58433e-10	-0.99553317	-1.7295508e-17	0.09278294
4.6252515415607217e-10	-3.2921648e-11	-3.950598e-10	-0.99553317	-1.7295511e-17	0.092782296
4.6500141771654053e-10	2.7983402e-10	-5.2674637e-10	-0.99553317	-1.7295511e-17	0.092782296
4.675271867861392e-10	-1.975299e-10	-5.925897e-10	-0.99553317	-1.7295511e-17	0.09278294
4.700034247815802e-10	-2.1399071e-10	-4.609031e-10	-0.99553317	-1.7295508e-17	0.09278294
4.7252919566688e-10	-9.876495e-11	-3.6213813e-10	-0.99553317	-1.7295511e-17	0.092782296
4.750054404031978e-10	3.2921648e-11	-6.5843296e-11	-0.99553317	-1.7295511e-17	0.09278294
4.775312142400915e-10	1.6460824e-10	-1.975299e-10	-0.99553317	-1.7295511e-17	0.092781655
4.800074622838087e-10	-4.9382474e-11	-1.6460824e-10	-0.99553317	-1.7295511e-17	0.09278294
4.825332317246714e-10	1.975299e-10	-9.876495e-11	-0.99553317	-1.7295511e-17	0.092781655
4.850094775774829e-10	3.292165e-10	-6.58433e-10	-0.99553317	-1.7295511e-17	0.09278294
4.875352507360341e-10	9.876495e-11	-5.2674637e-10	-0.99553317	-1.7295511e-17	0.092782296
4.900115023492534e-10	3.2921648e-11	-6.58433e-10	-0.99553317	-1.729551e-17	0.092782296
4.925372711774678e-10	6.5843296e-11	-5.2674637e-10	-0.99553317	-1.7295511e-17	0.092782296
4.950135078637663e-10	0	-4.115206e-10	-0.99553317	-1.7295511e-17	0.092781655
4.975392837400687e-10	3.2921648e-11	-5.2674637e-10	-0.99553317	-1.7295511e-17	0.09278294
5.000155295575702e-10	1.6460824e-11	-3.292165e-10	-0.99553317	-1.7295511e-17	0.092782296
5.025413130351882e-10	0	-5.2674637e-10	-0.99553317	-1.7295508e-17	0.092782296
5.05017557219351e-10	-6.5843296e-11	-5.925897e-10	-0.99553317	-1.7295511e-17	0.09278294
5.075433218864275e-10	1.6460824e-11	-5.925897e-10	-0.99553317	-1.7295511e-17	0.09278294
5.100195741457555e-10	-1.975299e-10	-5.432072e-10	-0.99553317	-1.729551e-17	0.092781655
5.125453394664514e-10	-6.5843296e-11	-5.2674637e-10	-0.99553317	-1.7295511e-17	0.092782296
5.150215842463089e-10	-3.2921648e-11	-5.2674637e-10	-0.99553317	-1.7295511e-17	0.092782296
5.175473476037202e-10	-8.230412e-11	-5.925897e-10	-0.99553317	-1.729551e-17	0.092781655
5.200235904295788e-10	4.9382474e-11	-2.6337318e-10	-0.99553317	-1.7295511e-17	0.092782296
5.225493708444555e-10	1.6460824e-10	-6.5843296e-11	-0.99553317	-1.7295511e-17	0.092782296
5.250256120054496e-10	1.6460824e-10	-4.609031e-10	-0.99553317	-1.729551e-17	0.09278294
5.275018646363603e-10	0	-5.2674637e-10	-0.99553317	-1.7295511e-17	0.092782296
5.300276399615854e-10	3.2921648e-11	-4.609031e-10	-0.99553317	-1.7295511e-17	0.09278294
5.325038709595183e-10	-1.1522577e-10	-3.2921648e-11	-0.99553317	-1.729551e-17	0.09278294
5.350296614731714e-10	-6.5843296e-11	-4.938247e-10	-0.99553317	-1.7295511e-17	0.092782296
5.37505895673658e-10	6.5843296e-11	-6.255113e-10	-0.99553317	-1.7295511e-17	0.092782296
5.400316772686087e-10	-1.4814742e-10	-6.58433e-10	-0.99553317	-1.7295511e-17	0.092781655
5.425079213362115e-10	-6.5843296e-11	-4.4444226e-10	-0.99553317	-1.7295511e-17	0.092782296
5.450336911804723e-10	-9.876495e-11	-7.078154e-10	-0.99553317	-1.729551e-17	0.09278294
5.475099378312828e-10	-2.3045155e-10	-7.2427625e-10	-0.99553317	-1.7295508e-17	0.092782296
5.500357111227885e-10	-6.5843296e-11	-6.255113e-10	-0.99553317	-1.7295511e-17	0.092782296
5.525119559369032e-10	0	-3.950598e-10	-0.99553317	-1.729551e-17	0.09278294
5.550377188442344e-10	-6.5843296e-11	-3.950598e-10	-0.99553317	-1.729551e-17	0.092782296
5.575139561189367e-10	-4.9382474e-11	-2.6337318e-10	-0.99553317	-1.7295511e-17	0.092782296
5.600397409781941e-10	1.8106906e-10	-2.6337318e-10	-0.99553317	-1.7295511e-17	0.09278294
5.625159785819231e-10	1.8106906e-10	-5.5966803e-10	-0.99553317	-1.729551e-17	0.09278294
5.650417388691772e-10	-9.876495e-11	-1.975299e-10	-0.99553317	-1.7295511e-17	0.092782296
5.675179952376248e-10	2.3045155e-10	-3.950598e-10	-0.99553317	-1.7295511e-17	0.092783585
5.700437668010303e-10	-9.876495e-11	-3.950598e-10	-0.99553317	-1.7295511e-17	0.092783585
5.725200096689319e-10	1.6460824e-10	-6.5843296e-11	-0.99553317	-1.7295511e-17	0.092781655
5.750457892963568e-10	2.1399071e-10	-5.432072e-10	-0.99553317	-1.7295511e-17	0.092781655
5.77522038563397e-10	2.6337318e-10	-3.292165e-10	-0.99553317	-1.7295511e-17	0.092782296
5.800478130739136e-10	1.3168659e-10	-5.2674637e-10	-0.99553317	-1.7295511e-17	0.09278294
5.825240615556586e-10	6.5843296e-11	-2.3045155e-10	-0.99553317	-1.7295511e-17	0.092782296
5.850002950765925e-10	-1.3168659e-10	-5.2674637e-10	-0.99553317	-1.7295511e-17	0.092782296
5.875260702446361e-10	1.8106906e-10	-3.292165e-10	-0.99553317	-1.7295511e-17	0.092782296
5.900023146726598e-10	9.876495e-11	-3.950598e-10	-0.99553317	-1.7295511e-17	0.092782296
5.925280991256267e-10	0	-3.292165e-10	-0.99553317	-1.729551e-17	0.09278294
5.950043430928069e-10	2.3045155e-10	-3.292165e-10	-0.99553317	-1.7295511e-17	0.09278294
5.975301125383962e-10	2.6337318e-10	-7.901196e-10	-0.99553317	-1.7295511e-17	0.092782296
6.000063580557245e-10	-9.876495e-11	-4.609031e-10	-0.99553317	-1.729551e-17	0.092781655
6.025321340821473e-10	9.876495e-11	-4.609031e-10	-0.99553317	-1.7295511e-17	0.092782296
6.050083774212374e-10	6.5843296e-11	-3.950598e-10	-0.99553317	-1.7295511e-17	0.092782296
6.07534155475107e-10	-3.2921648e-11	-3.950598e-10	-0.99553317	-1.729551e-17	0.092782296
6.100104002239031e-10	9.876495e-11	-4.609031e-10	-0.99553317	-1.7295511e-17	0.092781655
6.125361601185967e-10	-1.1522577e-10	-5.925897e-10	-0.99553317	-1.7295511e-17	0.09278294
6.15012416857886e-10	0	-5.925897e-10	-0.99553317	-1.7295511e-17	0.09278294
6.17538187492949e-10	2.9629485e-10	-5.5966803e-10	-0.99553317	-1.7295511e-17	0.092782296
6.20014429040245e-10	3.2921648e-11	-3.6213813e-10	-0.99553317	-1.7295511e-17	0.09278294
6.225401819480733e-10	-6.5843296e-11	-1.975299e-10	-0.99553317	-1.7295511e-17	0.092782296
6.250164249007745e-10	-1.3168659e-10	-4.938247e-10	-0.99553317	-1.7295511e-17	0.092781655
6.275422062297077e-10	-9.876495e-11	-6.4197214e-10	-0.99553317	-1.7295511e-17	0.092782296
6.300184511595777e-10	-2.3045155e-10	-4.609031e-10	-0.99553317	-1.729551e-17	0.092782296
6.325442307734078e-10	3.2921648e-11	-4.609031e-10	-0.99553317	-1.729551e-17	0.09278294
6.350204776591607e-10	0	-7.901196e-10	-0.99553317	-1.7295511e-17	0.092782296
6.375462617644979e-10	-9.876495e-11	-7.2427625e-10	-0.9955331	-1.729551e-17	0.09278294
6.400224984845975e-10	9.876495e-11	-5.925897e-10	-0.99553317	-1.729551e-17	0.092782296
6.425482713145472e-10	-1.8106906e-10	-5.925897e-10	-0.99553317	-1.7295511e-17	0.092781655
6.45024517862358e-10	1.6460824e-10	-3.950598e-10	-0.99553317	-1.7295511e-17	0.09278294
6.475007591428032e-10	-6.5843296e-11	-5.2674637e-10	-0.99553317	-1.7295511e-17	0.092782296
6.500265316715866e-10	4.9382474e-11	-5.925897e-10	-0.99553317	-1.729551e-17	0.092782296
6.525027759646512e-10	0	-3.292165e-10	-0.99553317	-1.7295511e-17	0.092782296
6.550285479814113e-10	1.975299e-10	-1.3168659e-10	-0.99553317	-1.729551e-17	0.092782296
6.57504783864091e-10	1.975299e-10	-1.975299e-10	-0.99553317	-1.7295511e-17	0.092782296
6.600305610765578e-10	1.3168659e-10	-2.6337318e-10	-0.99553317	-1.7295511e-17	0.09278294
6.625068232139537e-10	-2.3045155e-10	-5.2674637e-10	-0.99553317	-1.7295511e-17	0.092781655
6.650325933397809e-10	6.5843296e-11	-7.2427625e-10	-0.99553317	-1.7295511e-17	0.092782296
6.675088338507891e-10	-9.876495e-11	-4.609031e-10	-0.99553317	-1.729551e-17	0.09278294
6.700346027640466e-10	6.5843296e-11	-5.2674637e-10	-0.99553317	-1.7295511e-17	0.09278294
6.725108462869683e-10	2.9629485e-10	-5.1028554e-10	-0.99553317	-1.7295511e-17	0.09278294
6.750366084019046e-10	0	-4.609031e-10	-0.99553317	-1.729551e-17	0.092782296
6.775128475162696e-10	1.975299e-10	-4.609031e-10	-0.99553317	-1.729551e-17	0.092782296
6.800386303485184e-10	3.2921648e-11	-5.2674637e-10	-0.99553317	-1.7295511e-17	0.092782296
6.825148725913065e-10	9.876495e-11	-5.925897e-10	-0.99553317	-1.729551e-17	0.09278294
6.850406410468157e-10	-4.9382474e-11	-4.2798143e-10	-0.99553317	-1.7295511e-17	0.092781655
6.875168853703583e-10	-9.876495e-11	-2.9629485e-10	-0.99553317	-1.7295511e-17	0.092782296
6.900426673413367e-10	0	-3.6213813e-10	-0.99553317	-1.7295511e-17	0.092782296
6.925189163444453e-10	9.876495e-11	-2.6337318e-10	-0.99553317	-1.7295511e-17	0.092781655
6.950446833128603e-10	6.5843296e-11	-1.975299e-10	-0.99553317	-1.729551e-17	0.092782296
6.975209362271425e-10	-1.6460824e-10	-5.5966803e-10	-0.99553317	-1.729551e-17	0.09278294
7.00046698580656e-10	0	-3.292165e-10	-0.99553317	-1.7295511e-17	0.092782296
7.025229492189327e-10	1.6460824e-10	-2.6337318e-10	-0.99553317	-1.7295511e-17	0.09278294
7.050487187989238e-10	1.6460824e-10	-1.975299e-10	-0.99553317	-1.7295511e-17	0.092782296
7.075249622793222e-10	-4.9382474e-11	-1.3168659e-10	-0.99553317	-1.729551e-17	0.092782296
7.100012152707047e-10	1.3168659e-10	-5.2674637e-10	-0.99553317	-1.729551e-17	0.092782296
7.125269786330105e-10	2.3045155e-10	-4.2798143e-10	-0.99553317	-1.7295511e-17	0.09278294
7.150032251829598e-10	3.2921648e-11	-5.925897e-10	-0.99553317	-1.7295511e-17	0.09278294
7.175289914667773e-10	-2.6337318e-10	-2.6337318e-10	-0.99553317	-1.729551e-17	0.092782296
7.200052423497291e-10	-3.2921648e-11	-6.5843296e-11	-0.99553317	-1.7295511e-17	0.09278294
7.225310115695736e-10	9.876495e-11	-3.950598e-10	-0.99553317	-1.7295508e-17	0.092781655
7.250072671610207e-10	2.6337318e-10	-3.950598e-10	-0.99553317	-1.7295511e-17	0.092782296
7.275330414922203e-10	6.5843296e-11	-6.58433e-10	-0.99553317	-1.7295511e-17	0.092782296
7.300092886878301e-10	9.876495e-11	-3.950598e-10	-0.99553317	-1.7295508e-17	0.09278294
7.325350693326954e-10	9.876495e-11	-6.9135464e-10	-0.99553317	-1.7295511e-17	0.092782296
7.350113022567404e-10	1.3168659e-10	-4.609031e-10	-0.99553317	-1.7295511e-17	0.092782296
7.375370826934392e-10	-1.4814742e-10	-3.950598e-10	-0.99553317	-1.7295511e-17	0.09278294
7.400133194834497e-10	4.9382474e-11	-4.609031e-10	-0.99553317	-1.7295511e-17	0.092782296
7.425390908770174e-10	3.2921648e-11	-5.2674637e-10	-0.99553317	-1.7295511e-17	0.092782296
7.450153419465666e-10	-6.5843296e-11	-4.609031e-10	-0.99553317	-1.7295511e-17	0.092782296
7.475411059015455e-10	0	-5.2674637e-10	-0.99553317	-1.7295511e-17	0.09278294
7.500173484444206e-10	3.2921648e-11	-5.2674637e-10	-0.99553317	-1.7295511e-17	0.092782296
7.52543125504147e-10	1.3168659e-10	-1.975299e-10	-0.99553317	-1.7295511e-17	0.092782296
7.550193732195746e-10	6.5843296e-11	-4.609031e-10	-0.99553317	-1.7295511e-17	0.092782296
7.575451509237669e-10	-1.6460824e-11	-2.6337318e-10	-0.99553317	-1.7295511e-17	0.09278294
7.600213845251132e-10	2.3045155e-10	-6.5843296e-11	-0.99553317	-1.7295511e-17	0.092782296
7.625471639249821e-10	3.2921648e-11	-3.950598e-10	-0.99553317	-1.7295511e-17	0.09278294
7.650234074201677e-10	-3.2921648e-11	-3.950598e-10	-0.99553317	-1.7295511e-17	0.092782296
7.675491758264291e-10	-8.230412e-11	-5.432072e-10	-0.99553317	-1.7295511e-17	0.092782296
7.700254223657461e-10	-1.8106906e-10	-4.609031e-10	-0.99553317	-1.7295511e-17	0.092782296
7.725016671866699e-10	-1.3168659e-10	-2.6337318e-10	-0.99553317	-1.7295508e-17	0.09278294
7.750274427806321e-10	-6.5843296e-11	-6.5843296e-11	-0.99553317	-1.7295511e-17	0.092782296
7.775036921033232e-10	6.5843296e-11	0	-0.99553317	-1.7295511e-17	0.09278294
7.80029462860392e-10	6.5843296e-11	-3.950598e-10	-0.99553317	-1.7295511e-17	0.092781655
7.825056973624643e-10	-1.6460824e-10	-3.292165e-10	-0.99553317	-1.729551e-17	0.092782296
7.850314792108234e-10	1.3168659e-10	-3.292165e-10	-0.99553317	-1.7295511e-17	0.092782296
7.875077201793353e-10	2.6337318e-10	-5.925897e-10	-0.99553317	-1.7295511e-17	0.09278294
7.900334921463471e-10	4.9382474e-11	-2.6337318e-10	-0.99553317	-1.729551e-17	0.092782296
7.925097370542485e-10	0	-5.2674637e-10	-0.99553317	-1.7295511e-17	0.092782296
7.950355071853482e-10	3.2921648e-11	-2.6337318e-10	-0.99553317	-1.729551e-17	0.09278294
7.975117613811492e-10	2.3045155e-10	-4.938247e-10	-0.99553317	-1.7295511e-17	0.092782296
8.000375239691163e-10	0	-2.6337318e-10	-0.99553317	-1.7295511e-17	0.09278294
8.02513778129354e-10	1.4814742e-10	-3.950598e-10	-0.99553317	-1.7295511e-17	0.092782296
8.050395479435655e-10	-3.2921648e-11	-4.609031e-10	-0.99553317	-1.7295511e-17	0.092782296
8.075157883583051e-10	-1.6460824e-10	-4.609031e-10	-0.99553317	-1.7295511e-17	0.092782296
8.100415644524667e-10	2.6337318e-10	-4.609031e-10	-0.99553317	-1.729551e-17	0.092782296
8.125178073512677e-10	1.4814742e-10	-3.950598e-10	-0.99553317	-1.729551e-17	0.092782296
8.150435759305881e-10	6.5843296e-11	-5.2674637e-10	-0.99553317	-1.7295511e-17	0.092782296
8.175198221043106e-10	-4.9382474e-11	-5.2674637e-10	-0.99553317	-1.729551e-17	0.092782296
8.200456022303956e-10	-1.4814742e-10	-4.609031e-10	-0.99553317	-1.7295511e-17	0.092782296
8.22521855640968e-10	6.5843296e-11	-4.609031e-10	-0.99553317	-1.7295511e-17	0.092782296
8.250476239753736e-10	9.876495e-11	-2.6337318e-10	-0.99553317	-1.729551e-17	0.09278294
8.275238610663307e-10	2.6337318e-10	-3.6213813e-10	-0.99553317	-1.729551e-17	0.092781655
8.3000009759875e-10	6.5843296e-11	-3.950598e-10	-0.99553317	-1.7295511e-17	0.09278294
8.3252588376746e-10	1.3168659e-10	-2.6337318e-10	-0.99553317	-1.7295511e-17	0.092782296
8.350021286721728e-10	1.6460824e-10	-6.090505e-10	-0.99553317	-1.7295511e-17	0.092782296
8.375279070427737e-10	3.2921648e-11	-5.2674637e-10	-0.99553317	-1.729551e-17	0.092782296
8.400041428543859e-10	-1.975299e-10	-4.609031e-10	-0.99553317	-1.729551e-17	0.09278294
8.425299217785653e-10	-9.876495e-11	-3.292165e-10	-0.99553317	-1.729551e-17	0.09278294
8.450061569395369e-10	2.3045155e-10	-1.3168659e-10	-0.99553317	-1.7295511e-17	0.092783585
8.475319394012591e-10	6.5843296e-11	-6.58433e-10	-0.99553317	-1.7295511e-17	0.092782296