# t (s)	mx ()	my ()	mz ()	E_total (J)	MaxAngle (rad)
0	1.9235805e-10	4.0052636e-10	0.99524015	-1.2847277e-16	0.2654751
2.501272530588612e-12	3.3728534e-10	1.9696937e-10	0.9914684	-1.2831865e-16	0.23205006
5.0147100620002555e-12	4.901178e-10	4.690374e-10	0.9864082	-1.2783621e-16	0.2237195
7.524259204759308e-12	4.4071075e-10	8.432134e-10	0.980658	-1.2674214e-16	0.23286611
1.003033425392999e-11	-8.959142e-11	8.8537405e-10	0.9716298	-1.2447067e-16	0.23985603
1.2535591193360492e-11	1.2542799e-09	-2.0764128e-09	0.9423143	-1.2196377e-16	0.18166871
1.5039626548624896e-11	-4.155461e-09	-2.844264e-08	0.88631386	-1.2041326e-16	0.17741984
1.7543834825676942e-11	1.8457281e-07	-1.3468225e-07	0.82135856	-1.1407216e-16	0.25070348
2.0000614322119076e-11	6.792321e-07	6.530688e-08	0.7432775	-1.1591302e-16	0.17808191
2.250969458047063e-11	-3.9189396e-07	1.9089719e-06	0.68100035	-1.169328e-16	0.13075605
2.503045185716741e-11	-4.5843826e-06	3.2639261e-06	0.62440866	-1.1222036e-16	0.16757824
2.7515855455640948e-11	-2.2104416e-06	7.114644e-06	0.545071	-1.1271442e-16	0.2067267
3.00388940610713e-11	3.5229192e-08	5.1863235e-06	0.5063529	-1.1558028e-16	0.25536132
3.2510382487748244e-11	7.4092105e-07	3.4235002e-06	0.4942325	-1.1741605e-16	0.27794468
3.5030440328755764e-11	9.394477e-07	2.5716718e-06	0.48781532	-1.185688e-16	0.28201917
3.750029586141638e-11	8.329209e-07	1.9912793e-06	0.4825155	-1.1927749e-16	0.27293804
4.001909990382064e-11	6.1153787e-07	1.4545009e-06	0.477158	-1.197371e-16	0.25882897
4.2537710419143815e-11	3.9581752e-07	9.962223e-07	0.47194377	-1.2001831e-16	0.24763331
4.500689681812625e-11	2.385767e-07	6.574218e-07	0.46720025	-1.2018016e-16	0.23934995
4.752539012303982e-11	1.3356764e-07	4.2366202e-07	0.46288484	-1.202731e-16	0.23393224
5.0043877710485996e-11	6.5583556e-08	2.7690072e-07	0.45915	-1.2032302e-16	0.23052478
5.251289018945493e-11	1.8284554e-08	1.8645555e-07	0.4560387	-1.2034833e-16	0.22770035
5.5031213562225846e-11	-1.7918284e-08	1.2243459e-07	0.45338032	-1.2036075e-16	0.22590397
5.7500149462064645e-11	-4.1981487e-08	7.377063e-08	0.4512294	-1.2036559e-16	0.2248833
6.001839988185069e-11	-5.4771977e-08	3.411852e-08	0.44944492	-1.2036635e-16	0.22369397
6.253664509836189e-11	-5.7111894e-08	4.4584905e-09	0.44801992	-1.2036468e-16	0.22260125
6.500546745927272e-11	-5.2648133e-08	-1.4782584e-08	0.44692698	-1.2036175e-16	0.22190145
6.752365834153256e-11	-4.475882e-08	-2.5338561e-08	0.44607967	-1.2035818e-16	0.22191092
7.004182559600315e-11	-3.6764103e-08	-2.9554629e-08	0.44545868	-1.2035447e-16	0.221873
7.251058965598644e-11	-3.0092178e-08	-3.0086905e-08	0.44502893	-1.2035107e-16	0.2218256
7.502871580325492e-11	-2.394199e-08	-2.8764116e-08	0.44473818	-1.2034799e-16	0.2217893
7.754681444222478e-11	-1.8882709e-08	-2.6772025e-08	0.44456545	-1.2034538e-16	0.2217733
8.001555977666411e-11	-1.4266116e-08	-2.4695611e-08	0.44448385	-1.2034328e-16	0.22177874
8.253364332663076e-11	-9.544121e-09	-2.137019e-08	0.4444662	-1.2034161e-16	0.22180095
8.50023348125452e-11	-6.29775e-09	-1.7528297e-08	0.44449383	-1.2034034e-16	0.22183454
8.752039645853115e-11	-3.8735113e-09	-1.3354391e-08	0.44455266	-1.2033939e-16	0.22187516
9.003843762486382e-11	-2.592881e-09	-9.902487e-09	0.4446301	-1.2033875e-16	0.2219166
9.250704001950417e-11	-1.0909073e-09	-7.625811e-09	0.4447148	-1.2033834e-16	0.22195561
9.502498557597406e-11	-3.7417594e-10	-5.117251e-09	0.44480288	-1.2033812e-16	0.22199215
9.754293155875444e-11	7.061912e-10	-3.3359628e-09	0.44488743	-1.20338e-16	0.2220233
1.0001150605547089e-10	7.9051254e-10	-8.7483387e-10	0.44496357	-1.2033801e-16	0.2220498
1.0252941986602795e-10	-1.3702217e-10	8.010527e-10	0.44503257	-1.203381e-16	0.22207065
1.0504734635091993e-10	-3.0566485e-10	1.0434765e-09	0.44509193	-1.2033821e-16	0.22208878
1.0751589132770557e-10	2.7404434e-10	6.745707e-10	0.44514075	-1.2033834e-16	0.22210257
1.1003378569825922e-10	1.075097e-09	1.1067175e-09	0.4451813	-1.203385e-16	0.22211124
1.1250231085411173e-10	1.2859004e-09	2.0764128e-09	0.44521272	-1.2033866e-16	0.22211827
1.1502020653563027e-10	7.9051254e-10	2.9970306e-09	0.44523725	-1.203388e-16	0.22212341
1.1753808657398531e-10	-1.5283243e-10	2.9248963e-09	0.44525522	-1.2033894e-16	0.22212584
1.200066021645405e-10	-5.9024935e-10	2.4242384e-09	0.4452676	-1.2033906e-16	0.22212748
1.2252447195679243e-10	-5.111981e-10	1.512514e-09	0.4452759	-1.2033915e-16	0.22212775
1.250423282558401e-10	-4.2160667e-11	1.1488782e-09	0.44528073	-1.2033923e-16	0.22212802
1.2751082586210572e-10	2.6350416e-10	1.1646885e-09	0.44528288	-1.203393e-16	0.22212748
1.3002868376837005e-10	2.582341e-10	1.4071123e-09	0.44528317	-1.2033936e-16	0.22212557
1.3254654837752383e-10	1.581025e-11	1.4492729e-09	0.4452821	-1.2033939e-16	0.22212638
1.3501501977655306e-10	6.3241e-11	1.4018422e-09	0.44528025	-1.2033941e-16	0.22212476
1.3753286514062128e-10	-4.163366e-10	1.1172577e-09	0.44527787	-1.2033944e-16	0.22212288
1.4000133053657874e-10	-3.6890585e-10	9.117245e-10	0.44527525	-1.2033944e-16	0.22212233
1.4251916141755035e-10	-4.1106651e-10	1.0909073e-09	0.44527268	-1.2033947e-16	0.22212097
1.450369919248596e-10	-5.480887e-10	1.1752286e-09	0.44527015	-1.2033947e-16	0.22212043
1.4750544534958136e-10	-5.9024935e-10	1.3649516e-09	0.44526786	-1.2033945e-16	0.22211988
1.500232631444694e-10	-4.5849727e-10	1.3754918e-09	0.44526595	-1.2033945e-16	0.22211908
1.5254108501058778e-10	-8.642937e-10	1.1383381e-09	0.44526416	-1.2033945e-16	0.22211935
1.5500952891115627e-10	-9.380748e-10	6.060596e-10	0.44526276	-1.2033945e-16	0.22211935
1.5752734155072843e-10	-1.011856e-09	4.5322718e-10	0.44526166	-1.2033944e-16	0.222118
1.6004515104697877e-10	-6.113297e-10	1.4229226e-10	0.4452607	-1.2033943e-16	0.222118
1.6251359665434288e-10	-5.797092e-11	6.126472e-11	0.44526	-1.2033944e-16	0.222118
1.6503139890106838e-10	1.4229226e-10	6.3241e-10	0.44525948	-1.2033943e-16	0.22211774
1.675492036195458e-10	2.3188368e-10	7.1673134e-10	0.44525912	-1.2033943e-16	0.222118
1.7001764649413557e-10	-7.905125e-11	8.326732e-10	0.44525892	-1.203394e-16	0.22211774
1.725354544978874e-10	1.0540167e-11	9.275347e-10	0.4452588	-1.2033941e-16	0.22211854
1.7500388409516965e-10	-2.0553326e-10	8.274031e-10	0.44525874	-1.203394e-16	0.222118
1.77521686023296e-10	-1.581025e-10	9.802356e-10	0.44525874	-1.2033941e-16	0.22211745
1.8003948574134784e-10	-3.16205e-10	1.0434765e-09	0.4452588	-1.2033941e-16	0.22211827
1.8250791047042244e-10	-4.9538784e-10	9.802356e-10	0.4452588	-1.2033943e-16	0.22211827
1.8502571767943965e-10	-3.3728534e-10	6.798408e-10	0.44525892	-1.2033939e-16	0.22211774
1.875435268355719e-10	-2.7931443e-10	6.5876044e-10	0.445259	-1.2033941e-16	0.22211881
1.9001193938574315e-10	-3.6363576e-10	6.3010436e-10	0.4452591	-1.203394e-16	0.222118
1.9252975274752554e-10	-2.0553326e-10	7.3254164e-10	0.44525912	-1.203394e-16	0.222118
1.9504754159813883e-10	-8.4321335e-11	7.1673134e-10	0.44525927	-1.203394e-16	0.22211827
1.9751596921809837e-10	-2.4769392e-10	7.641621e-10	0.44525927	-1.203394e-16	0.22211774
2.0003375573327282e-10	-2.3715377e-10	8.7483387e-10	0.4452593	-1.2033941e-16	0.22211881
2.0250219498285702e-10	-5.2700837e-11	7.378117e-10	0.4452594	-1.2033941e-16	0.22211827
2.050199913041753e-10	-1.26482e-10	7.58892e-10	0.4452594	-1.2033943e-16	0.22211827
2.075377939492103e-10	-1.4229226e-10	7.7997236e-10	0.44525945	-1.2033941e-16	0.22211827
2.100062160463781e-10	-4.2160667e-11	6.9565104e-10	0.44525945	-1.2033941e-16	0.22211854
2.1252401496903266e-10	-6.3241e-11	8.2213303e-10	0.44525945	-1.2033941e-16	0.22211854
2.1504180563599572e-10	4.2160667e-11	8.2213303e-10	0.44525948	-1.2033941e-16	0.22211827
2.1751024201995643e-10	-8.4321335e-11	9.591552e-10	0.44525948	-1.2033941e-16	0.22211774
2.2002803494092607e-10	1.581025e-11	8.063228e-10	0.44525948	-1.2033941e-16	0.22211881
2.2254583197424198e-10	2.3188368e-10	9.696953e-10	0.44525948	-1.2033941e-16	0.22211827
2.2501425079746846e-10	1.3702217e-10	9.703541e-10	0.44525948	-1.2033941e-16	0.22211827
2.2753204317011795e-10	5.2700834e-12	1.3649516e-09	0.44525948	-1.2033941e-16	0.22211881
2.3000047343536244e-10	-2.0553326e-10	1.1172577e-09	0.44525948	-1.2033941e-16	0.22211827
2.3251825896245032e-10	-1.26482e-10	9.855056e-10	0.44525948	-1.2033941e-16	0.222118
2.3503607077732583e-10	-1.26482e-10	9.43345e-10	0.44525948	-1.2033941e-16	0.22211881
2.3750448683458995e-10	-3.6890584e-11	9.43345e-10	0.44525948	-1.2033941e-16	0.222118
2.4002228460692435e-10	-3.16205e-11	1.011856e-09	0.44525948	-1.2033941e-16	0.22211854
2.425400782515427e-10	9.48615e-11	8.906441e-10	0.44525948	-1.2033941e-16	0.22211774
2.4500850638182287e-10	1.581025e-10	1.0961774e-09	0.44525948	-1.2033941e-16	0.222118
2.475263082120941e-10	1.26482e-10	1.3122508e-09	0.44525945	-1.2033943e-16	0.22211935
2.500441000957779e-10	9.48615e-11	1.2911705e-09	0.44525945	-1.2033941e-16	0.22211827
2.525125296941919e-10	-1.1594184e-10	1.0487466e-09	0.44525945	-1.2033943e-16	0.22211854
2.550303251394369e-10	-1.7918284e-10	8.8537405e-10	0.44525948	-1.2033943e-16	0.22211854
2.575481204041164e-10	-4.2160667e-11	9.696953e-10	0.44525945	-1.2033941e-16	0.222118
2.600165402329578e-10	2.1080334e-11	8.3794327e-10	0.44525948	-1.2033941e-16	0.22211881
2.6253433954555666e-10	-7.905125e-11	9.0019614e-10	0.44525948	-1.2033941e-16	0.222118
2.650027701588331e-10	-2.2134351e-10	9.43345e-10	0.44525945	-1.2033941e-16	0.222118
2.6752056013028005e-10	-2.52964e-10	1.0065859e-09	0.44525945	-1.2033941e-16	0.22211854
2.7003836452733797e-10	-2.2134351e-10	1.0065859e-09	0.44525945	-1.2033941e-16	0.222118
2.725067939342092e-10	-2.52964e-10	9.749654e-10	0.44525945	-1.2033944e-16	0.22211827
2.750245892032373e-10	-6.3241e-11	7.7997236e-10	0.44525945	-1.2033941e-16	0.22211854
2.7754239584712293e-10	-1.581025e-11	1.0803671e-09	0.44525945	-1.2033941e-16	0.222118
2.800108104170655e-10	-2.3188368e-10	1.1541483e-09	0.44525945	-1.2033941e-16	0.22211854
2.8252860941340664e-10	-1.5283243e-10	1.1172577e-09	0.44525945	-1.2033941e-16	0.22211827
2.8504641719518956e-10	-2.0553326e-10	1.0013159e-09	0.44525945	-1.2033941e-16	0.22211854
2.8751484986104117e-10	-2.52964e-10	1.0223962e-09	0.44525945	-1.2033941e-16	0.22211881
2.900326522171531e-10	-2.2661359e-10	9.802356e-10	0.44525948	-1.203394e-16	0.22211774
2.9250107046389574e-10	-2.4769392e-10	8.906441e-10	0.44525945	-1.2033941e-16	0.22211854
2.9501886660006637e-10	-2.6350416e-10	1.069827e-09	0.44525945	-1.2033941e-16	0.22211881
2.9753667491342853e-10	-1.10671756e-10	1.1172577e-09	0.44525945	-1.2033941e-16	0.222118
3.000051091816825e-10	-2.2661359e-10	1.2015791e-09	0.44525945	-1.2033941e-16	0.22211854
3.025229108293524e-10	-3.847161e-10	1.2226594e-09	0.44525948	-1.2033941e-16	0.22211827
3.0504069876681296e-10	-4.0579642e-10	1.1963089e-09	0.44525945	-1.2033941e-16	0.22211854
3.0750913844637966e-10	-3.79446e-10	1.1014475e-09	0.44525948	-1.2033941e-16	0.22211908
3.1002693736823036e-10	-3.79446e-10	1.0171262e-09	0.44525945	-1.2033943e-16	0.222118
3.1254473828734313e-10	-4.3214685e-10	1.1383381e-09	0.44525945	-1.2033941e-16	0.22211908
3.1501316890730655e-10	-2.4242383e-10	1.1014475e-09	0.44525948	-1.2033943e-16	0.22211908
3.17530972964114e-10	-2.6350416e-10	1.0382064e-09	0.44525948	-1.2033941e-16	0.22211827
3.200487635326011e-10	-4.0579642e-10	9.749654e-10	0.44525945	-1.2033941e-16	0.22211881
3.225172045656093e-10	-2.0553326e-10	8.274031e-10	0.44525945	-1.2033941e-16	0.22211881
3.2503498832228784e-10	2.1080334e-11	9.0645436e-10	0.44525948	-1.2033941e-16	0.22211854
3.275034137788735e-10	1.1594184e-10	9.591552e-10	0.44525945	-1.2033943e-16	0.22211881
3.3002122974830193e-10	-4.2160667e-11	1.0065859e-09	0.44525945	-1.2033941e-16	0.22211854
3.3253901660174393e-10	-1.581025e-11	1.2753603e-09	0.44525945	-1.2033941e-16	0.22211854
3.350074533242438e-10	1.4229226e-10	1.0223962e-09	0.44525945	-1.2033944e-16	0.22211854
3.3752526059963207e-10	1.7391276e-10	1.0856372e-09	0.44525945	-1.2033943e-16	0.222118
3.4004305869616977e-10	-4.743075e-11	1.1804987e-09	0.44525945	-1.2033941e-16	0.22211881
3.425114905647116e-10	-2.0026318e-10	1.3965722e-09	0.44525945	-1.2033943e-16	0.22211827
3.4502930408036376e-10	-3.7417594e-10	1.25955e-09	0.44525945	-1.2033944e-16	0.22211881
3.4754709312633535e-10	-3.3201528e-10	1.0645569e-09	0.44525948	-1.2033943e-16	0.22211854
3.500155303228297e-10	-3.9525627e-10	8.5902363e-10	0.44525945	-1.2033941e-16	0.22211881
3.525333294293631e-10	-4.2160667e-11	8.1159285e-10	0.44525945	-1.2033944e-16	0.22211854
3.550017563758685e-10	-3.16205e-11	1.0645569e-09	0.44525945	-1.2033944e-16	0.22211854
3.575195662243411e-10	4.743075e-11	1.0645569e-09	0.44525945	-1.2033941e-16	0.22211774
3.6003736311542244e-10	1.0013159e-10	9.960458e-10	0.44525945	-1.2033941e-16	0.22211854
3.62505788074625e-10	-7.378117e-11	1.1172577e-09	0.44525945	-1.2033943e-16	0.22211827
3.650235866996853e-10	-1.89723e-10	1.0382064e-09	0.44525945	-1.2033941e-16	0.22211854
3.675413942049944e-10	-1.9499309e-10	1.0909073e-09	0.44525948	-1.2033941e-16	0.22211854
3.700098113958105e-10	0	1.0065859e-09	0.44525948	-1.2033941e-16	0.222118
3.7252762350595023e-10	-1.26482e-10	1.2700901e-09	0.44525945	-1.2033944e-16	0.22211854
3.7504542346842366e-10	-2.7404434e-10	1.2437397e-09	0.44525948	-1.203394e-16	0.22211854
3.7751384741131186e-10	-4.0579642e-10	1.133068e-09	0.44525945	-1.2033941e-16	0.222118
3.800316549085243e-10	-1.581025e-10	1.133068e-09	0.44525945	-1.2033941e-16	0.22211881
3.8250008433946484e-10	-2.6877425e-10	9.855056e-10	0.44525948	-1.2033941e-16	0.22211881
3.850178895421502e-10	-2.52964e-10	9.011843e-10	0.44525948	-1.2033941e-16	0.222118
3.875356838922967e-10	-8.4321335e-11	6.798408e-10	0.44525945	-1.2033941e-16	0.22211827
3.9000411659080054e-10	1.0540167e-11	7.641621e-10	0.44525945	-1.2033941e-16	0.22211908
3.9252191607441286e-10	2.2661359e-10	8.1686297e-10	0.44525945	-1.2033941e-16	0.22211854
3.9503972151250875e-10	1.26482e-10	1.0329364e-09	0.44525945	-1.2033941e-16	0.22211854
3.9750814844020856e-10	0	1.0856372e-09	0.44525945	-1.2033941e-16	0.222118
4.0002594631369805e-10	-3.214751e-10	1.0909073e-09	0.44525948	-1.2033943e-16	0.22211881
4.02543748876593e-10	-2.2661359e-10	1.0276663e-09	0.44525948	-1.2033941e-16	0.222118
4.0501219207754917e-10	-1.5283243e-10	1.0540167e-09	0.44525948	-1.2033941e-16	0.22211827
4.0752999294589327e-10	6.3241e-11	9.960458e-10	0.44525945	-1.2033944e-16	0.22211827
4.1004777872731307e-10	2.582341e-10	9.960458e-10	0.44525945	-1.2033943e-16	0.222118
4.1251621031881103e-10	8.4321335e-11	1.2437397e-09	0.44525945	-1.2033941e-16	0.22211827
4.150340130694487e-10	-4.743075e-11	1.2911705e-09	0.44525948	-1.2033941e-16	0.22211854
4.1750245790425143e-10	-2.52964e-10	1.1541483e-09	0.44525945	-1.2033941e-16	0.22211854
4.200202575991939e-10	-1.3702217e-10	1.0540167e-09	0.44525945	-1.2033941e-16	0.22211854
4.2253805900683077e-10	-2.3188368e-10	1.2279294e-09	0.44525945	-1.2033941e-16	0.22211854
4.2500649313343687e-10	-5.2700837e-11	1.1594183e-09	0.44525945	-1.2033941e-16	0.22211745
4.2752428612307304e-10	-8.959142e-11	1.1225277e-09	0.44525945	-1.2033943e-16	0.22211881
4.30042075524613e-10	-1.581025e-10	9.644253e-10	0.44525945	-1.2033941e-16	0.22211774
4.3251053424162747e-10	0	1.1119876e-09	0.44525945	-1.2033941e-16	0.22211881
4.350283172637815e-10	-1.0540167e-11	9.960458e-10	0.44525948	-1.2033941e-16	0.22211854
4.3754612504020926e-10	-1.633726e-10	1.0329364e-09	0.44525945	-1.2033941e-16	0.22211881
4.400145607472878e-10	-2.7404434e-10	9.960458e-10	0.44525945	-1.2033941e-16	0.22211854
4.425323517478444e-10	-3.16205e-10	1.0065859e-09	0.44525948	-1.2033941e-16	0.222118
4.4500077631518487e-10	-1.3702217e-10	1.1014475e-09	0.44525945	-1.203394e-16	0.22211774
4.4751857808932286e-10	-4.2160667e-11	9.380748e-10	0.44525945	-1.2033941e-16	0.22211854
4.500363771709023e-10	-1.3702217e-10	1.0276663e-09	0.44525945	-1.2033941e-16	0.222118
4.525048114792721e-10	-4.2160667e-11	1.032607e-09	0.44525945	-1.2033941e-16	0.222118
4.5502261349289963e-10	-5.2700837e-11	9.749654e-10	0.44525945	-1.2033941e-16	0.22211854
4.57540412661425e-10	2.1080334e-11	9.855056e-10	0.44525948	-1.2033941e-16	0.22211854
4.600088407558771e-10	4.743075e-11	9.380748e-10	0.44525945	-1.2033941e-16	0.22211881
4.625266339968946e-10	-2.1080334e-11	1.0329364e-09	0.44525945	-1.2033943e-16	0.22211881
4.6504442782117914e-10	-2.1080334e-11	1.0329364e-09	0.44525945	-1.2033943e-16	0.22211881
4.675128658826714e-10	1.0013159e-10	1.0856372e-09	0.44525948	-1.2033941e-16	0.22211881
4.700306720312384e-10	-2.1080334e-11	1.0223962e-09	0.44525945	-1.2033941e-16	0.222118
4.725484731539008e-10	5.2700834e-12	9.328048e-10	0.44525945	-1.2033941e-16	0.22211854
4.750169025484759e-10	9.48615e-11	1.1436081e-09	0.44525945	-1.2033941e-16	0.22211854
4.775347056396617e-10	1.0013159e-10	1.2911705e-09	0.44525945	-1.2033941e-16	0.22211827
4.800031376812436e-10	0	1.25955e-09	0.44525945	-1.2033944e-16	0.22211854
4.825209488420737e-10	-1.0013159e-10	1.075097e-09	0.44525945	-1.2033941e-16	0.22211854
4.850387260563056e-10	-6.8511086e-11	1.0382064e-09	0.44525945	-1.2033941e-16	0.22211881
4.875071707507882e-10	-1.3702217e-10	9.802356e-10	0.44525945	-1.2033941e-16	0.22211881
4.900249605263208e-10	2.6350418e-11	9.43345e-10	0.44525948	-1.2033941e-16	0.222118
4.92542756898951e-10	-6.8511086e-11	1.0382064e-09	0.44525945	-1.2033941e-16	0.22211908
4.950111918425275e-10	1.0540167e-11	9.011843e-10	0.44525945	-1.2033941e-16	0.22211854
4.975289859311595e-10	-1.10671756e-10	7.957826e-10	0.44525945	-1.2033941e-16	0.222118
5.000467865935312e-10	6.3241e-11	8.4848345e-10	0.44525945	-1.2033941e-16	0.22211854
5.025152168330436e-10	4.2160667e-11	8.695638e-10	0.44525948	-1.2033941e-16	0.22211881
5.050330187660932e-10	0	7.114613e-10	0.44525945	-1.2033941e-16	0.22211854
5.075014552008748e-10	-1.581025e-11	8.4848345e-10	0.44525945	-1.2033941e-16	0.22211854
5.100192611843231e-10	-1.581025e-10	9.749654e-10	0.44525948	-1.2033941e-16	0.22211827
5.125370465233728e-10	-9.48615e-11	9.222646e-10	0.44525945	-1.2033941e-16	0.22211881
5.150054771158501e-10	-3.6890584e-11	9.855056e-10	0.44525945	-1.2033943e-16	0.22211881
5.175232762398382e-10	-1.3702217e-10	1.2015791e-09	0.44525945	-1.2033941e-16	0.22211827
5.200410834399802e-10	-1.89723e-10	1.075097e-09	0.44525945	-1.2033941e-16	0.22211881
5.225095119064956e-10	5.2700834e-12	1.0645569e-09	0.44525948	-1.2033941e-16	0.22211854
5.250273109659351e-10	-2.3188368e-10	1.1172577e-09	0.44525945	-1.2033941e-16	0.22211881
5.275450995756e-10	-2.52964e-10	1.011856e-09	0.44525948	-1.2033941e-16	0.22211854
5.300135357215665e-10	-1.0013159e-10	8.1686297e-10	0.44525945	-1.2033941e-16	0.22211827
5.325313390349209e-10	1.26482e-10	9.222646e-10	0.44525945	-1.2033941e-16	0.22211854
5.35049141655678e-10	-5.797092e-11	1.1699586e-09	0.44525945	-1.2033941e-16	0.22211827
5.375175706715636e-10	-8.959142e-11	1.1752286e-09	0.44525945	-1.2033941e-16	0.22211774
5.400353566590258e-10	-3.9525627e-10	1.2068492e-09	0.44525945	-1.2033941e-16	0.22211881
5.425037932506326e-10	-3.6890585e-10	1.1383381e-09	0.44525945	-1.2033943e-16	0.22211881
5.450215926145326e-10	-2.3715377e-10	9.855056e-10	0.44525945	-1.2033941e-16	0.22211827
5.47539388402725e-10	-1.0540167e-11	1.0961774e-09	0.44525945	-1.2033941e-16	0.22211854
5.500078202959477e-10	6.8511086e-11	1.2490098e-09	0.44525948	-1.2033941e-16	0.22211881
5.525256122408961e-10	-2.4242383e-10	1.2911705e-09	0.44525945	-1.2033941e-16	0.22211854
5.550434189733968e-10	-3.214751e-10	1.2331995e-09	0.44525945	-1.2033941e-16	0.22211881
5.575118383564506e-10	-3.267452e-10	1.1277979e-09	0.44525945	-1.2033941e-16	0.22211774
5.600296405997643e-10	-4.8484766e-10	9.644253e-10	0.44525945	-1.2033943e-16	0.22211908
5.625474332160613e-10	-3.6890585e-10	8.906441e-10	0.44525948	-1.2033941e-16	0.22211774
5.650158494879354e-10	-1.10671756e-10	7.4308176e-10	0.44525945	-1.2033941e-16	0.222118
5.675336456895015e-10	-5.2700834e-12	9.1699454e-10	0.44525948	-1.2033941e-16	0.22211854
5.700020906933437e-10	-1.26482e-10	9.960458e-10	0.44525948	-1.2033941e-16	0.22211908
5.725198879908967e-10	-2.1607342e-10	9.538851e-10	0.44525945	-1.2033941e-16	0.22211881
5.750376906334594e-10	-1.05401674e-10	9.802356e-10	0.44525945	-1.2033941e-16	0.22211881
5.775061208898052e-10	3.16205e-11	1.1488782e-09	0.44525948	-1.2033941e-16	0.22211827
5.800239066689898e-10	-1.89723e-10	9.591552e-10	0.44525948	-1.2033941e-16	0.22211854
5.825417031867042e-10	-2.6877425e-10	1.0592868e-09	0.44525945	-1.2033943e-16	0.22211827
5.850101412725227e-10	-3.3728534e-10	9.591552e-10	0.44525945	-1.2033943e-16	0.22211774
5.875279301233019e-10	-4.6376736e-10	8.8010393e-10	0.44525945	-1.2033943e-16	0.22211827
5.900457317814665e-10	-1.581025e-10	5.428186e-10	0.44525945	-1.2033944e-16	0.22211827
5.925141571736184e-10	-1.3702217e-10	8.7483387e-10	0.44525945	-1.2033941e-16	0.22211854
5.950319566646119e-10	-8.4321335e-11	9.380748e-10	0.44525945	-1.2033941e-16	0.22211827
5.975003924805275e-10	-8.4321335e-11	1.1277979e-09	0.44525948	-1.2033943e-16	0.22211854
6.000181838167937e-10	1.0540167e-11	8.432134e-10	0.44525945	-1.2033944e-16	0.22211881
6.025359774464135e-10	-8.4321335e-11	9.0645436e-10	0.44525948	-1.2033941e-16	0.22211827
6.050044038951565e-10	-2.7404434e-10	1.0592868e-09	0.44525945	-1.2033941e-16	0.22211774
6.075221975276838e-10	-3.16205e-10	1.0803671e-09	0.44525945	-1.2033941e-16	0.22211827
6.100399983994401e-10	-2.8458452e-10	9.43345e-10	0.44525948	-1.2033941e-16	0.22211854
6.125084214872017e-10	-3.16205e-11	9.960458e-10	0.44525945	-1.2033941e-16	0.22211827
6.150262229644469e-10	-5.2700837e-11	9.802356e-10	0.44525945	-1.2033941e-16	0.22211881
6.175440228053715e-10	-1.05401674e-10	1.0065859e-09	0.44525945	-1.2033941e-16	0.22211827
6.200124522215392e-10	-1.26482e-10	1.0434765e-09	0.44525945	-1.2033941e-16	0.22211881
6.225302351110754e-10	-3.0039476e-10	1.2173893e-09	0.44525948	-1.203394e-16	0.22211854
6.250480290128135e-10	-1.8445293e-10	9.960458e-10	0.44525945	-1.2033944e-16	0.22211854
6.275164654926324e-10	-1.05401674e-10	8.7483387e-10	0.44525948	-1.2033941e-16	0.22211854
6.300342568696682e-10	-1.8445293e-10	8.274031e-10	0.44525948	-1.2033941e-16	0.22211774
6.325026891303164e-10	-2.2134351e-10	8.537535e-10	0.44525945	-1.2033941e-16	0.22211854
6.350204884688626e-10	9.48615e-11	9.486151e-10	0.44525945	-1.2033941e-16	0.22211854
6.375382898832123e-10	1.4229226e-10	1.2384697e-09	0.44525945	-1.2033941e-16	0.222118
6.400067078551984e-10	-1.3702217e-10	1.3333311e-09	0.44525945	-1.2033941e-16	0.22211881
6.425245031032548e-10	-2.8985458e-10	1.1119876e-09	0.44525945	-1.2033941e-16	0.22211881
6.450423000345433e-10	-3.3201528e-10	9.855056e-10	0.44525945	-1.2033943e-16	0.22211854
6.475107274200423e-10	-2.3715377e-10	1.0434765e-09	0.44525945	-1.2033944e-16	0.22211854
6.500285080747191e-10	-3.1093492e-10	1.0803671e-09	0.44525945	-1.2033941e-16	0.22211774
6.525463180335556e-10	-1.1594184e-10	1.1277979e-09	0.44525945	-1.2033941e-16	0.22211854
6.550147388960118e-10	-1.9499309e-10	1.3596816e-09	0.44525945	-1.2033941e-16	0.22211854
6.57532539152669e-10	-4.1106651e-10	1.4492729e-09	0.44525945	-1.2033941e-16	0.22211854
6.600009643546777e-10	-4.3741694e-10	1.2015791e-09	0.44525945	-1.2033941e-16	0.22211827
6.625187575543325e-10	-2.2661359e-10	9.802356e-10	0.44525945	-1.2033941e-16	0.22211908
6.650365596119426e-10	-1.3702217e-10	9.328048e-10	0.44525945	-1.2033941e-16	0.22211881
6.675049856398451e-10	-4.743075e-11	9.644253e-10	0.44525948	-1.2033941e-16	0.22211854
6.700227748941745e-10	-1.2121192e-10	1.011856e-09	0.44525945	-1.2033941e-16	0.222118
6.72540571812485e-10	-3.1093492e-10	1.0276663e-09	0.44525945	-1.2033941e-16	0.22211854
6.750090041807206e-10	-2.1080335e-10	9.275347e-10	0.44525945	-1.2033943e-16	0.22211854
6.775267853844663e-10	0	8.063228e-10	0.44525948	-1.2033944e-16	0.22211827
6.800445896098636e-10	-5.797092e-11	1.1067175e-09	0.44525945	-1.2033941e-16	0.22211854
6.825130137619326e-10	-5.2700837e-11	1.2700901e-09	0.44525945	-1.2033941e-16	0.22211935
6.850308165656139e-10	-4.163366e-10	1.2700901e-09	0.44525945	-1.2033941e-16	0.22211881
6.875486054708173e-10	-4.7430754e-10	1.2331995e-09	0.44525948	-1.203394e-16	0.22211854
6.900170346937352e-10	-4.7430754e-10	1.0645569e-09	0.44525948	-1.2033941e-16	0.22211854
6.925348283964512e-10	-4.5322718e-10	1.0803671e-09	0.44525945	-1.2033944e-16	0.22211854
6.950032613155166e-10	-2.7404434e-10	9.960458e-10	0.44525945	-1.2033941e-16	0.22211854
6.97521058116762e-10	-1.1594184e-10	9.117245e-10	0.44525948	-1.2033941e-16	0.222118
7.000388478910658e-10	-1.05401674e-10	1.1541483e-09	0.44525948	-1.2033941e-16	0.22211908
7.025072755707868e-10	-2.6877425e-10	1.0803671e-09	0.44525945	-1.2033941e-16	0.22211854
7.050250741047802e-10	-1.8445293e-10	9.117245e-10	0.44525945	-1.2033941e-16	0.22211854
7.075428691504209e-10	-3.1884007e-10	8.3794327e-10	0.44525948	-1.2033941e-16	0.22211881
7.100112979101769e-10	-1.05401674e-10	9.222646e-10	0.44525948	-1.203394e-16	0.22211881
7.125290969597557e-10	-5.2700834e-12	7.641621e-10	0.44525945	-1.2033941e-16	0.22211881
7.15046892324106e-10	-1.0540167e-11	9.117245e-10	0.44525948	-1.2033943e-16	0.22211854
7.175153123247556e-10	4.2160667e-11	1.0382064e-09	0.44525945	-1.2033941e-16	0.222118
7.200331172544508e-10	5.2700834e-12	8.4848345e-10	0.44525945	-1.2033941e-16	0.22211854
7.225015368250338e-10	2.6350418e-11	1.0223962e-09	0.44525948	-1.2033941e-16	0.22211854
7.250193253058294e-10	1.10671756e-10	1.0961774e-09	0.44525945	-1.2033941e-16	0.22211827
7.275371221719915e-10	7.378117e-11	1.2121192e-09	0.44525945	-1.2033941e-16	0.22211854
7.300055534112243e-10	-6.3241e-11	1.2015791e-09	0.44525945	-1.2033944e-16	0.22211881
7.325233460506122e-10	-1.0540167e-11	1.1804987e-09	0.44525945	-1.2033941e-16	0.22211854
7.3504113929927e-10	-6.8511086e-11	1.1383381e-09	0.44525945	-1.2033941e-16	0.22211881
7.375095637060664e-10	4.2160667e-11	1.1225277e-09	0.44525945	-1.2033941e-16	0.22211827
7.400273478347561e-10	-7.378117e-11	1.0803671e-09	0.44525945	-1.2033944e-16	0.22211881
7.425451420277045e-10	-1.4229226e-10	1.0171262e-09	0.44525948	-1.203394e-16	0.22211774
7.450135848213377e-10	-2.1607342e-10	9.328048e-10	0.44525945	-1.2033941e-16	0.22211774
7.475313694328885e-10	-1.633726e-10	1.0434765e-09	0.44525945	-1.2033941e-16	0.22211827
7.500491587953091e-10	-3.267452e-10	1.1804987e-09	0.44525945	-1.2033941e-16	0.22211827
7.525175837304719e-10	-2.4242383e-10	1.1804987e-09	0.4452594	-1.2033941e-16	0.22211854
7.550353781274565e-10	-3.847161e-10	1.1225277e-09	0.44525948	-1.2033941e-16	0.22211854
7.575037900690817e-10	-2.7404434e-10	1.0540167e-09	0.44525948	-1.2033941e-16	0.22211827
7.600215937900485e-10	-1.8445293e-10	9.696953e-10	0.44525945	-1.2033944e-16	0.22211854
7.625393893509611e-10	-3.0566485e-10	1.075097e-09	0.44525945	-1.2033941e-16	0.22211854
7.650078105327195e-10	-2.3188368e-10	7.852424e-10	0.44525948	-1.2033944e-16	0.22211827
7.675256040438044e-10	-2.0026318e-10	9.696953e-10	0.44525945	-1.2033941e-16	0.22211827
7.700434068804031e-10	-3.4782552e-10	8.3794327e-10	0.44525945	-1.2033941e-16	0.22211827
7.725118353742637e-10	-2.3188368e-10	9.802356e-10	0.44525945	-1.2033943e-16	0.22211881
7.750296285734198e-10	-1.4756234e-10	1.2384697e-09	0.44525948	-1.2033941e-16	0.22211854
7.775474110706802e-10	-1.7391276e-10	1.0909073e-09	0.44525945	-1.2033941e-16	0.22211881
7.800158334942835e-10	-1.3175208e-10	1.069827e-09	0.44525945	-1.2033941e-16	0.22211908
7.825336433671956e-10	1.3702217e-10	1.069827e-09	0.44525948	-1.2033941e-16	0.22211827
7.850020611186916e-10	-3.6890584e-11	1.1488782e-09	0.44525945	-1.2033944e-16	0.22211745
7.875198463529652e-10	-1.581025e-10	9.328048e-10	0.44525945	-1.2033941e-16	0.22211854
7.900376459961067e-10	-2.1607342e-10	8.326732e-10	0.44525945	-1.2033944e-16	0.222118
7.925060706248537e-10	-2.8985458e-10	8.5902363e-10	0.44525945	-1.2033941e-16	0.22211854
7.950238678049998e-10	-1.9499309e-10	8.326732e-10	0.44525948	-1.2033941e-16	0.22211854
7.975416578681773e-10	-1.4229226e-10	9.486151e-10	0.44525948	-1.2033944e-16	0.22211881
8.000100820267305e-10	-1.7918284e-10	8.8010393e-10	0.44525945	-1.2033944e-16	0.22211854
8.025278695958301e-10	-1.1594184e-10	6.1034156e-10	0.44525948	-1.2033941e-16	0.22211881
8.050456624184375e-10	2.0553326e-10	6.534904e-10	0.44525945	-1.2033941e-16	0.22211854
8.075140914788044e-10	6.3241e-11	8.906441e-10	0.44525945	-1.2033941e-16	0.22211881
8.100318763084669e-10	4.2160667e-11	1.0382064e-09	0.44525945	-1.2033941e-16	0.222118
8.125003011778229e-10	1.10671756e-10	1.0540167e-09	0.44525945	-1.2033944e-16	0.22211827
8.150181020297874e-10	5.797092e-11	1.1014475e-09	0.44525945	-1.203394e-16	0.22211854
8.175358924136649e-10	-7.378117e-11	1.0803671e-09	0.44525945	-1.2033941e-16	0.22211854
8.200043216141836e-10	-1.89723e-10	1.1541483e-09	0.44525945	-1.2033941e-16	0.22211854
8.225221098779659e-10	-2.7404434e-10	1.1014475e-09	0.44525948	-1.2033941e-16	0.22211881
8.250398969573973e-10	-2.3715377e-10	1.0141618e-09	0.44525945	-1.2033941e-16	0.22211854
8.275083235870397e-10	-2.2661359e-10	9.0645436e-10	0.44525945	-1.2033941e-16	0.22211854
8.300261207218483e-10	-2.3188368e-10	7.852424e-10	0.44525945	-1.2033941e-16	0.222118
8.325439136715473e-10	-1.7391276e-10	9.538851e-10	0.44525945	-1.2033941e-16	0.22211854
8.350123444267434e-10	-8.4321335e-11	8.8010393e-10	0.44525948	-1.2033941e-16	0.22211854
8.375301286330629e-10	-3.6890584e-11	8.537535e-10	0.44525945	-1.2033941e-16	0.222118
8.400479194379794e-10	-1.4756234e-10	6.798408e-10	0.44525945	-1.2033941e-16	0.22211881
8.425163415128569e-10	-5.797092e-11	7.272715e-10	0.44525945	-1.2033941e-16	0.22211881
8.450341347247356e-10	4.743075e-11	7.378117e-10	0.44525945	-1.2033941e-16	0.22211854
8.475025668588824e-10	1.633726e-10	8.274031e-10	0.4452594	-1.2033944e-16	0.22211881
8.500203600033358e-10	1.0540167e-11	1.011856e-09	0.44525945	-1.2033941e-16	0.22211827
8.525381533272188e-10	-4.0579642e-10	9.591552e-10	0.44525945	-1.2033941e-16	0.22211908
8.550065728977779e-10	-3.4782552e-10	9.117245e-10	0.44525945	-1.2033941e-16	0.222118
8.575243601150264e-10	-2.1607342e-10	8.063228e-10	0.44525945	-1.2033941e-16	0.222118
8.600421639346027e-10	-6.8511086e-11	6.3241e-10	0.44525945	-1.2033941e-16	0.22211827
8.625105882183661e-10	1.6864267e-10	8.4848345e-10	0.44525945	-1.203394e-16	0.22211881