# t (s)	mx ()	my ()	mz ()	E_total (J)	MaxAngle (rad)
0	4.3826945e-10	2.6337318e-10	0.9955557	-1.2884941e-16	0.654401
2.5753680526181985e-12	1.0699536e-09	4.2798143e-10	0.9973776	-1.2885067e-16	1.3363456
5.047754641208258e-12	-8.452633e-09	-3.2263217e-09	0.9979262	-1.2912579e-16	0.1589537
7.681613408772992e-12	-8.6007806e-10	-3.292165e-10	0.99795175	-1.2913383e-16	0.15900716
1.0130926174395971e-11	2.674884e-11	1.3168659e-10	0.997926	-1.2913394e-16	0.159064
1.2512773509485001e-11	7.613131e-11	1.975299e-10	0.99789894	-1.2913397e-16	0.15900867
1.524795370688725e-11	1.7078106e-10	2.6337318e-10	0.997887	-1.2913398e-16	0.1589341
1.7631146625879762e-11	1.2551378e-10	1.2345618e-10	0.99789155	-1.2913398e-16	0.1589409
2.004495910984541e-11	9.876495e-11	9.464974e-11	0.99790055	-1.2913401e-16	0.15894692
2.27317340648032e-11	1.4197461e-10	-2.6337318e-10	0.9979072	-1.29134e-16	0.15894578
2.5136909132965095e-11	1.995875e-10	0	0.99790776	-1.29134e-16	0.15894692
2.7528757718899624e-11	2.5925798e-10	6.5843296e-11	0.9979052	-1.2913401e-16	0.15894881
3.022684475821236e-11	1.5226262e-10	1.3168659e-10	0.99790233	-1.2913401e-16	0.15894277
3.261873750608542e-11	1.11110565e-10	1.975299e-10	0.9979013	-1.2913402e-16	0.15893713
3.5013970987005595e-11	8.230412e-12	1.3168659e-10	0.9979016	-1.2913402e-16	0.1589375
3.77073749769943e-11	-6.9958504e-11	1.3168659e-10	0.99790275	-1.2913401e-16	0.15893976
4.010210082519085e-11	-8.847693e-11	-6.5843296e-11	0.9979034	-1.2913398e-16	0.15893939
4.279494946952192e-11	4.732487e-11	-6.5843296e-11	0.99790347	-1.2913404e-16	0.15893863
4.518961908062807e-11	1.3168659e-10	0	0.9979033	-1.2913401e-16	0.15893863
4.7583584204242474e-11	1.8724187e-10	-1.3168659e-10	0.9979029	-1.2913401e-16	0.15893824
5.027659119730164e-11	1.8929948e-10	1.975299e-10	0.9979028	-1.2913401e-16	0.15893824
5.267035016880511e-11	1.4403222e-11	0	0.9979028	-1.2913401e-16	0.15893863
5.506364678133857e-11	1.5432022e-10	1.975299e-10	0.9979029	-1.2913401e-16	0.15893863
5.775707374321579e-11	-1.8312667e-10	1.975299e-10	0.997903	-1.29134e-16	0.15893824
6.015056350267708e-11	-1.2345618e-10	6.5843296e-11	0.997903	-1.29134e-16	0.15893863
6.254448983455759e-11	-1.7078106e-10	-9.053453e-11	0.997903	-1.29134e-16	0.15893863
6.523729344956662e-11	4.115206e-11	-3.0864045e-10	0.9979029	-1.2913401e-16	0.15893824
6.763119594102477e-11	2.674884e-10	-1.975299e-10	0.9979029	-1.2913401e-16	0.15893863
7.002475628719494e-11	3.8271417e-10	6.5843296e-11	0.9979029	-1.2913401e-16	0.15893824
7.271758913860808e-11	2.8189162e-10	5.7612887e-11	0.9979029	-1.2913401e-16	0.15893863
7.511149062505624e-11	4.115206e-12	1.6872345e-10	0.99790287	-1.2913401e-16	0.15893824
7.750518995384672e-11	1.0082255e-10	6.5843296e-11	0.997903	-1.2913401e-16	0.15893787
8.019803711083998e-11	1.4197461e-10	-1.975299e-10	0.997903	-1.2913401e-16	0.15893824
8.25919015530819e-11	8.4361726e-11	-6.5843296e-11	0.9979029	-1.2913401e-16	0.15893824
8.52847657918484e-11	1.358018e-10	-1.3168659e-10	0.9979029	-1.2913401e-16	0.15893863
8.7678477887915e-11	2.2427873e-10	2.8806443e-11	0.9979029	-1.2913401e-16	0.15893824
9.007213935166988e-11	2.6337318e-10	9.876495e-11	0.9979029	-1.2913401e-16	0.15893863
9.276510542081082e-11	-1.23456185e-11	1.975299e-10	0.9979029	-1.2913401e-16	0.15893824
9.515873579532163e-11	-1.3168659e-10	9.053453e-11	0.9979029	-1.2913401e-16	0.15893824
9.755245902784209e-11	-1.4403222e-11	-1.3168659e-10	0.997903	-1.2913401e-16	0.15893824
1.0024533661123736e-10	1.4403222e-10	-2.9629485e-10	0.997903	-1.2913401e-16	0.15893824
1.0263905004907266e-10	2.3868196e-10	-6.5843296e-11	0.997903	-1.2913401e-16	0.15893863
1.0503259628370603e-10	1.1522577e-10	3.2921648e-11	0.9979029	-1.2913401e-16	0.15893787
1.0772556786518964e-10	2.2016353e-10	0	0.997903	-1.2913401e-16	0.15893824
1.1011801619964937e-10	6.5843296e-11	0	0.997903	-1.2913401e-16	0.15893863
1.1251112321925882e-10	-2.8806443e-11	0	0.9979029	-1.2913401e-16	0.15893863
1.1520296454077388e-10	1.6460824e-11	5.7612887e-11	0.9979029	-1.2913401e-16	0.15893863
1.1759576491480613e-10	1.3168659e-10	-6.5843296e-11	0.9979029	-1.2913401e-16	0.15893824
1.2028755743709323e-10	2.3045155e-10	6.5843296e-11	0.9979029	-1.2913401e-16	0.15893863
1.2268047593863243e-10	2.9217964e-10	1.975299e-10	0.9979029	-1.2913401e-16	0.15893824
1.2507303514222074e-10	6.1728092e-12	6.5843296e-11	0.9979029	-1.2913401e-16	0.15893902
1.2776509774367828e-10	6.172809e-11	6.5843296e-11	0.997903	-1.2913401e-16	0.15893863
1.3015763592781089e-10	9.053453e-11	-6.5843296e-11	0.99790287	-1.2913401e-16	0.15893902
1.325505527993641e-10	1.2757138e-10	1.3168659e-10	0.9979029	-1.2913401e-16	0.15893824
1.3524227322102713e-10	1.5226262e-10	1.23456185e-11	0.997903	-1.2913401e-16	0.15893824
1.3763513260003357e-10	2.1810592e-10	-6.5843296e-11	0.997903	-1.2913401e-16	0.15893824
1.4002772996570946e-10	1.4403222e-10	2.6337318e-10	0.9979029	-1.2913401e-16	0.15893824
1.4271958370848156e-10	5.967049e-11	1.3168659e-10	0.9979029	-1.2913401e-16	0.15893824
1.4511242035463586e-10	-6.378569e-11	8.230412e-11	0.9979029	-1.2913401e-16	0.15893824
1.475050746288953e-10	1.2962899e-10	8.230412e-12	0.99790287	-1.2913401e-16	0.15893824
1.5019678439100255e-10	2.3045155e-10	1.975299e-10	0.997903	-1.2913401e-16	0.15893824
1.5258945097918605e-10	1.5843543e-10	6.5843296e-11	0.9979029	-1.2913401e-16	0.15893863
1.5528122779824312e-10	6.79009e-11	6.5843296e-11	0.997903	-1.2913401e-16	0.15893824
1.5767376735698276e-10	1.6872345e-10	0	0.99790287	-1.2913401e-16	0.15893863
1.6006644361158885e-10	1.7283866e-10	1.3168659e-10	0.9979029	-1.2913401e-16	0.15893787
1.6275812017950048e-10	7.8188914e-11	1.975299e-10	0.9979029	-1.2913401e-16	0.15893787
1.6515076217392585e-10	-1.0288015e-11	2.6337318e-10	0.9979029	-1.2913401e-16	0.15893824
1.6754346702601123e-10	-6.5843296e-11	6.5843296e-11	0.9979029	-1.2913401e-16	0.15893863
1.702351889652898e-10	3.7036856e-11	6.5843296e-11	0.9979029	-1.2913401e-16	0.15893863
1.7262763805189346e-10	5.967049e-11	0	0.997903	-1.2913401e-16	0.15893902
1.7502034394174924e-10	1.4608982e-10	1.3168659e-10	0.997903	-1.2913401e-16	0.15893863
1.7771196640489137e-10	9.464974e-11	-1.975299e-10	0.9979029	-1.2913401e-16	0.15893787
1.801046470733702e-10	1.5226262e-10	-1.6460824e-10	0.9979029	-1.2913401e-16	0.15893902
1.827963025646918e-10	2.4691235e-10	1.3168659e-10	0.997903	-1.2913401e-16	0.15893863
1.8518882722255474e-10	1.4608982e-10	0	0.997903	-1.2913401e-16	0.15893863
1.8758148765223962e-10	1.0288015e-10	1.975299e-10	0.997903	-1.2913401e-16	0.15893863
1.9027302353316792e-10	1.358018e-10	0	0.9979029	-1.2913401e-16	0.15893863
1.9266565620401062e-10	5.349768e-11	0	0.9979029	-1.2913401e-16	0.15893863
1.9505812792675926e-10	1.358018e-10	1.1934098e-10	0.9979029	-1.2913401e-16	0.15893824
1.9774982228300773e-10	2.1193311e-10	1.8518427e-10	0.997903	-1.2913401e-16	0.15893863
2.0014224582984565e-10	1.0493775e-10	1.8929948e-10	0.997903	-1.2913401e-16	0.15893824
2.0253492528231818e-10	4.115206e-11	6.5843296e-11	0.9979029	-1.2913401e-16	0.15893824
2.0522658858950111e-10	1.0288015e-10	0	0.9979029	-1.2913401e-16	0.15893902
2.0761906530995145e-10	8.024652e-11	1.975299e-10	0.9979029	-1.2913401e-16	0.15893902
2.1001174600828364e-10	-3.4979252e-11	-6.5843296e-11	0.9979029	-1.2913401e-16	0.15893824
2.127033457636647e-10	1.2757138e-10	-1.975299e-10	0.9979029	-1.2913401e-16	0.15893863
2.1509589399750053e-10	2.4073957e-10	-1.3168659e-10	0.9979029	-1.2913401e-16	0.15893902
2.1778754472498385e-10	1.8929948e-10	2.6337318e-10	0.9979029	-1.2913401e-16	0.15893863
2.2018010670603234e-10	-2.4691237e-11	2.6337318e-10	0.9979029	-1.2913401e-16	0.15893902
2.225725122369774e-10	-1.6460824e-11	1.3168659e-10	0.99790287	-1.2913401e-16	0.15893824
2.2526426352833036e-10	1.0699536e-10	-6.5843296e-11	0.99790287	-1.2913401e-16	0.15893824
2.2765674053249516e-10	1.3991701e-10	0	0.99790287	-1.2913401e-16	0.15893787
2.300493126344682e-10	9.2592135e-11	1.3168659e-10	0.997903	-1.2913401e-16	0.15893824
2.327408479476777e-10	2.3250914e-10	2.8806443e-11	0.9979029	-1.2913401e-16	0.15893863
2.351335543970612e-10	1.3991701e-10	1.3168659e-10	0.99790287	-1.2913401e-16	0.15893863
2.375259807423068e-10	1.4197461e-10	3.2921648e-11	0.997903	-1.2913401e-16	0.15893824
2.4021768544394964e-10	2.3045155e-10	0	0.997903	-1.2913401e-16	0.15893824
2.4261016935720936e-10	1.0493775e-10	6.5843296e-11	0.9979029	-1.2913401e-16	0.15893824
2.450027978241872e-10	1.4403222e-10	0	0.9979029	-1.2913401e-16	0.15893824
2.4769435608323273e-10	3.9094457e-11	0	0.997903	-1.2913401e-16	0.15893863
2.50086934648097e-10	9.6707344e-11	-2.8806443e-11	0.997903	-1.2913401e-16	0.15893863
2.5277846838201677e-10	1.3991701e-10	1.8518427e-10	0.997903	-1.2913401e-16	0.15893787
2.55171119913315e-10	1.8929948e-10	6.5843296e-11	0.9979029	-1.2913401e-16	0.15893863
2.5756354939659695e-10	1.5637783e-10	6.5843296e-11	0.99790287	-1.2913401e-16	0.15893863
2.6025532540146797e-10	1.6460824e-11	1.975299e-10	0.997903	-1.2913401e-16	0.15893824
2.626476876451667e-10	1.0082255e-10	0	0.997903	-1.2913401e-16	0.15893824
2.6504041521390625e-10	1.6049304e-10	1.975299e-10	0.997903	-1.2913401e-16	0.15893863
2.677318973589933e-10	-8.230412e-12	0	0.9979029	-1.2913401e-16	0.15893863
2.701246562686919e-10	1.3168659e-10	-6.5843296e-11	0.99790287	-1.2913401e-16	0.15893863
2.7251715433350946e-10	1.7078106e-10	-8.230412e-11	0.9979029	-1.2913401e-16	0.15893863
2.7520876078012456e-10	1.337442e-10	6.5843296e-11	0.997903	-1.2913401e-16	0.15893824
2.776013858814083e-10	1.8724187e-10	6.5843296e-11	0.9979029	-1.2913401e-16	0.15893787
2.8029281720116126e-10	2.2427873e-10	2.6337318e-10	0.9979029	-1.2913401e-16	0.15893824
2.8268560135801656e-10	2.1399071e-10	1.3168659e-10	0.99790287	-1.2913401e-16	0.15893824
2.8507804906256175e-10	1.3991701e-10	1.3168659e-10	0.9979029	-1.2913401e-16	0.15893863
2.877698637498692e-10	1.4608982e-10	-6.5843296e-11	0.9979029	-1.2913401e-16	0.15893824
2.901621908802299e-10	2.2633634e-10	3.2921648e-11	0.9979029	-1.2913401e-16	0.15893787
2.925548394011982e-10	2.2839394e-10	5.7612887e-11	0.9979029	-1.2913401e-16	0.15893824
2.9524631865735846e-10	7.8188914e-11	8.641933e-11	0.9979029	-1.2913401e-16	0.15893824
2.9763900818205647e-10	1.2551378e-10	6.5843296e-11	0.9979029	-1.2913401e-16	0.15893863
3.0003161563640134e-10	9.876495e-11	1.6460824e-11	0.997903	-1.2913401e-16	0.15893902
3.0272316257830706e-10	1.1316817e-10	0	0.9979029	-1.2913401e-16	0.15893863
3.0511573951627654e-10	1.2345618e-10	9.464974e-11	0.9979029	-1.2913401e-16	0.15893824
3.075084521401319e-10	9.053453e-11	-6.5843296e-11	0.99790287	-1.2913401e-16	0.15893824
3.101999572058795e-10	1.0082255e-10	-1.3168659e-10	0.997903	-1.2913401e-16	0.15893824
3.125925038557356e-10	1.5432022e-10	6.5843296e-11	0.9979029	-1.2913401e-16	0.15893863
3.1528419482874626e-10	2.8806443e-11	0	0.9979029	-1.2913401e-16	0.15893902
3.1767672986727173e-10	0	8.230412e-12	0.9979029	-1.2913401e-16	0.15893824
3.2006918576479734e-10	1.3168659e-10	-6.5843296e-11	0.9979029	-1.2913401e-16	0.15893863
3.2276097782073395e-10	3.292165e-10	6.5843296e-11	0.9979029	-1.2913401e-16	0.15893863
3.2515346311441965e-10	2.016451e-10	6.5843296e-11	0.9979029	-1.2913401e-16	0.15893824
3.275461056614897e-10	9.2592135e-11	-6.5843296e-11	0.997903	-1.2913401e-16	0.15893863
3.3023781471467865e-10	1.23456185e-11	-1.3168659e-10	0.9979029	-1.2913401e-16	0.15893824
3.3263025863397397e-10	1.8724187e-10	-6.5843296e-11	0.9979029	-1.2913401e-16	0.15893863
3.350228950304311e-10	2.3250914e-10	6.5843296e-11	0.9979029	-1.2913401e-16	0.15893824
3.377144450287394e-10	2.4691237e-11	1.975299e-10	0.9979029	-1.2913401e-16	0.15893863
3.4010707506933565e-10	9.053453e-11	8.230412e-12	0.9979029	-1.2913401e-16	0.15893863
3.4279869628979385e-10	0	1.3168659e-10	0.9979029	-1.2913401e-16	0.15893824
3.451913149141344e-10	1.2345618e-10	1.2345618e-10	0.9979029	-1.2913401e-16	0.15893902
3.4758369910474236e-10	1.7695385e-10	-6.5843296e-11	0.9979029	-1.2913401e-16	0.15893863
3.5027557457064776e-10	1.5226262e-10	1.975299e-10	0.997903	-1.2913401e-16	0.15893863
3.526679335766898e-10	6.378569e-11	-1.0288015e-10	0.9979029	-1.2913401e-16	0.15893787
3.550605868839029e-10	1.5637783e-10	1.1934098e-10	0.997903	-1.2913401e-16	0.15893824
3.5775219238097024e-10	6.79009e-11	-6.5843296e-11	0.9979029	-1.2913401e-16	0.15893902
3.601448098188549e-10	5.7612887e-11	1.975299e-10	0.9979029	-1.2913401e-16	0.15893824
3.625374712567778e-10	-2.057603e-12	0	0.9979029	-1.2913401e-16	0.15893863
3.652289176754304e-10	-4.115206e-12	1.0699536e-10	0.99790287	-1.2913401e-16	0.15893824
3.676217603751212e-10	7.201611e-11	-6.5843296e-11	0.9979029	-1.2913401e-16	0.15893863
3.7001417282704635e-10	2.4485475e-10	-1.975299e-10	0.997903	-1.2913401e-16	0.15893787
3.727058317205582e-10	1.4197461e-10	-6.9958504e-11	0.9979029	-1.2913401e-16	0.15893824
3.750983400715127e-10	1.0905296e-10	0	0.9979029	-1.2913401e-16	0.15893863
3.777901148555745e-10	2.078179e-10	-6.5843296e-11	0.997903	-1.2913401e-16	0.15893824
3.8018268698332495e-10	2.69546e-10	6.5843296e-11	0.9979029	-1.2913401e-16	0.15893824
3.825752523060327e-10	1.5637783e-10	6.5843296e-11	0.9979029	-1.2913401e-16	0.15893787
3.8526678378088597e-10	-5.349768e-11	1.975299e-10	0.997903	-1.2913401e-16	0.15893863
3.8765949531877727e-10	3.2921648e-11	2.5925798e-10	0.9979029	-1.2913401e-16	0.15893824
3.9005199235315977e-10	1.0288015e-10	6.5843296e-11	0.997903	-1.2913401e-16	0.15893863
3.927436072241524e-10	1.378594e-10	0	0.99790287	-1.2913401e-16	0.15893824
3.9513625499640627e-10	1.11110565e-10	0	0.9979029	-1.2913401e-16	0.15893787
3.975288485926997e-10	1.5226262e-10	0	0.9979029	-1.2913401e-16	0.15893787
4.0022042150541055e-10	1.4608982e-10	6.5843296e-11	0.9979029	-1.2913401e-16	0.15893824
4.0261296395146404e-10	1.4814742e-10	1.3168659e-10	0.9979029	-1.2913401e-16	0.15893863
4.0500566450607604e-10	8.641933e-11	1.3168659e-10	0.997903	-1.2913401e-16	0.15893863
4.0769722878348756e-10	-1.23456185e-11	0	0.9979029	-1.2913401e-16	0.15893863
4.1008986611024564e-10	-8.024652e-11	-6.5843296e-11	0.9979029	-1.2913401e-16	0.15893824
4.1278140793835057e-10	1.7283866e-10	-1.3168659e-10	0.997903	-1.2913401e-16	0.15893824
4.1517399568335266e-10	1.6049304e-10	-6.5843296e-11	0.997903	-1.2913401e-16	0.15893902
4.175667039888648e-10	1.337442e-10	-1.8106906e-10	0.99790287	-1.2913401e-16	0.15893824
4.202581987929116e-10	3.4979252e-11	6.5843296e-11	0.9979029	-1.2913401e-16	0.15893824
4.226507570729177e-10	6.79009e-11	-6.5843296e-11	0.9979029	-1.2913401e-16	0.15893824
4.250434459437031e-10	1.4814742e-10	-6.5843296e-11	0.9979029	-1.2913401e-16	0.15893902
4.2773507325803605e-10	1.8724187e-10	-6.5843296e-11	0.997903	-1.2913401e-16	0.15893863
4.3012769425279003e-10	5.349768e-11	6.5843296e-11	0.9979029	-1.2913401e-16	0.15893787
4.325200742788703e-10	-1.2345618e-10	4.5267266e-11	0.9979029	-1.2913401e-16	0.15893787
4.35211820522526e-10	9.2592135e-11	-6.5843296e-11	0.9979029	-1.2913401e-16	0.15893863
4.376044122060202e-10	4.5267266e-11	6.5843296e-11	0.9979029	-1.2913401e-16	0.15893824
4.40295963729087e-10	9.6707344e-11	0	0.9979029	-1.2913401e-16	0.15893787
4.4268874892063664e-10	4.115206e-11	0	0.9979029	-1.2913401e-16	0.15893863
4.450812597196323e-10	1.8312667e-10	1.23456185e-11	0.997903	-1.2913401e-16	0.15893863
4.477727964751556e-10	2.2427873e-10	0	0.997903	-1.2913401e-16	0.15893863
4.501655163033235e-10	6.5843296e-11	3.292165e-10	0.9979029	-1.2913401e-16	0.15893863
4.525580880389979e-10	-7.201611e-11	-1.2345618e-10	0.997903	-1.2913401e-16	0.15893824
4.552497067224683e-10	1.4403222e-10	-1.975299e-10	0.997903	-1.2913401e-16	0.15893863
4.576423355191635e-10	1.9135708e-10	0	0.9979029	-1.2913401e-16	0.15893863
4.600348455199101e-10	2.9012204e-10	0	0.9979029	-1.2913401e-16	0.15893863
4.627265645956515e-10	5.5555283e-11	-1.3168659e-10	0.997903	-1.2913401e-16	0.15893863
4.651189950218369e-10	1.6872345e-10	-6.5843296e-11	0.997903	-1.2913401e-16	0.15893902
4.675116658727135e-10	1.5432022e-10	-1.358018e-10	0.997903	-1.2913401e-16	0.15893824
4.702032602333723e-10	1.4197461e-10	6.5843296e-11	0.9979029	-1.2913401e-16	0.15893863
4.725958063056795e-10	1.0288015e-10	-6.5843296e-11	0.9979029	-1.2913401e-16	0.15893824
4.752873962657166e-10	9.053453e-11	6.5843296e-11	0.9979029	-1.2913401e-16	0.15893824
4.776801187386261e-10	1.0288015e-10	1.3168659e-10	0.997903	-1.2913401e-16	0.15893902
4.800726464597901e-10	3.2715888e-10	2.1810592e-10	0.99790287	-1.2913401e-16	0.15893863
4.827642427024601e-10	4.115206e-12	2.057603e-10	0.99790287	-1.2913401e-16	0.15893787
4.851567699021274e-10	-3.2304368e-10	-1.975299e-10	0.9979029	-1.2913401e-16	0.15893824
4.87549498439901e-10	-4.732487e-11	-2.6337318e-10	0.9979029	-1.2913401e-16	0.15893863
4.902409337310786e-10	3.7859896e-10	-1.975299e-10	0.997903	-1.2913401e-16	0.15893824
4.926336977272769e-10	2.7983402e-10	1.3168659e-10	0.99790287	-1.2913401e-16	0.15893824
4.950259941841998e-10	1.5020502e-10	2.6337318e-10	0.9979029	-1.2913401e-16	0.15893824
4.977179447331066e-10	5.1440074e-11	6.5843296e-11	0.9979029	-1.2913401e-16	0.15893863
5.00110356600568e-10	-2.674884e-11	6.5843296e-11	0.9979029	-1.2913401e-16	0.15893863
5.025030426683296e-10	8.230412e-12	-1.3168659e-10	0.997903	-1.2913401e-16	0.15893863
5.051945105020587e-10	2.8806443e-11	-1.3168659e-10	0.9979029	-1.2913401e-16	0.15893863
5.075873017328872e-10	1.9135708e-10	0	0.9979029	-1.2913401e-16	0.15893824
5.102787970841078e-10	6.79009e-11	0	0.9979029	-1.2913401e-16	0.15893863
5.126714088069798e-10	1.4608982e-10	-6.5843296e-11	0.9979029	-1.2913401e-16	0.15893863
5.150638794077816e-10	2.8600683e-10	6.5843296e-11	0.9979029	-1.2913401e-16	0.15893863
5.177556730284592e-10	2.3045155e-10	5.7612887e-11	0.99790287	-1.2913401e-16	0.15893863
5.201480553971215e-10	3.4979252e-11	2.6337318e-10	0.9979029	-1.2913401e-16	0.15893824
5.225407495931911e-10	-3.2921648e-11	-2.4691237e-11	0.99790287	-1.2913401e-16	0.15893863
5.252321941095533e-10	9.6707344e-11	0	0.997903	-1.2913401e-16	0.15893863
5.276249260567539e-10	1.6255064e-10	-1.975299e-10	0.997903	-1.2913401e-16	0.15893824
5.300174496304408e-10	9.053453e-11	-1.975299e-10	0.9979029	-1.2913401e-16	0.15893824
5.327091401500239e-10	1.5226262e-10	-6.5843296e-11	0.997903	-1.2913401e-16	0.15893824
5.351016589827853e-10	2.674884e-10	0	0.9979029	-1.2913401e-16	0.15893824
5.377933243865318e-10	1.8929948e-10	-6.5843296e-11	0.997903	-1.2913401e-16	0.15893902
5.401858432866319e-10	2.057603e-10	2.6337318e-10	0.99790287	-1.2913401e-16	0.15893902
5.425783349811157e-10	-3.0864044e-11	1.975299e-10	0.997903	-1.2913401e-16	0.15893863
5.452700705133692e-10	-1.6255064e-10	0	0.9979029	-1.2913401e-16	0.15893863
5.47662442952739e-10	-8.024652e-11	-2.6337318e-10	0.9979029	-1.2913401e-16	0.15893863
5.500551083649747e-10	1.5843543e-10	-1.3168659e-10	0.9979029	-1.2913401e-16	0.15893863
5.527467666114455e-10	1.975299e-10	6.5843296e-11	0.9979029	-1.2913401e-16	0.15893824
5.55139316007987e-10	1.1934098e-10	1.975299e-10	0.997903	-1.2913401e-16	0.15893863
5.575318687016015e-10	-1.4403222e-11	2.6337318e-10	0.997903	-1.2913401e-16	0.15893863
5.602236140554086e-10	-4.9382474e-11	1.3168659e-10	0.9979029	-1.2913401e-16	0.15893863
5.62616072066408e-10	3.7036856e-11	9.876495e-11	0.9979029	-1.2913401e-16	0.15893902
5.650086520267276e-10	1.4403222e-10	-5.349768e-11	0.997903	-1.2913401e-16	0.15893863
5.677002003016647e-10	9.876495e-11	1.3168659e-10	0.9979029	-1.2913401e-16	0.15893863
5.700927445224805e-10	6.172809e-11	4.5267266e-11	0.99790287	-1.2913401e-16	0.15893787
5.727842907555197e-10	9.464974e-11	-6.5843296e-11	0.99790287	-1.2913401e-16	0.15893902
5.751768458507869e-10	1.2962899e-10	0	0.997903	-1.2913401e-16	0.15893824
5.775692706888779e-10	3.4979252e-11	2.8806443e-11	0.997903	-1.2913401e-16	0.15893824
5.802609396303305e-10	2.2633633e-11	-6.5843296e-11	0.99790287	-1.2913401e-16	0.15893863
5.826534495036366e-10	1.11110565e-10	-2.4691237e-11	0.9979029	-1.2913401e-16	0.15893863
5.850458942859805e-10	1.9341469e-10	6.5843296e-11	0.997903	-1.2913401e-16	0.15893863
5.877376141791399e-10	1.1934098e-10	0	0.997903	-1.2913401e-16	0.15893902
5.901300465194085e-10	2.4073957e-10	0	0.9979029	-1.2913401e-16	0.15893863
5.925226665281315e-10	8.641933e-11	8.230412e-12	0.997903	-1.2913401e-16	0.15893902
5.95214136117604e-10	1.0905296e-10	6.5843296e-11	0.9979029	-1.2913401e-16	0.15893902
5.976068162262614e-10	1.3991701e-10	6.5843296e-11	0.9979029	-1.2913401e-16	0.15893824
6.002983998246966e-10	1.4608982e-10	-8.230412e-12	0.997903	-1.2913401e-16	0.15893787
6.026908387119869e-10	9.2592135e-11	0	0.997903	-1.2913401e-16	0.15893824
6.050833813585318e-10	1.11110565e-10	8.230412e-12	0.997903	-1.2913401e-16	0.15893863
6.077749333700858e-10	1.1934098e-10	1.3168659e-10	0.99790287	-1.2913401e-16	0.15893824
6.101674451358959e-10	-3.4979252e-11	1.3168659e-10	0.9979029	-1.2913401e-16	0.15893863
6.125600223614061e-10	-8.230412e-12	-8.230412e-12	0.9979029	-1.2913401e-16	0.15893824
6.152515484742689e-10	1.2345618e-10	-6.5843296e-11	0.9979029	-1.2913401e-16	0.15893902
6.176441581283046e-10	3.1687086e-10	9.464974e-11	0.9979029	-1.2913401e-16	0.15893902
6.200366356927779e-10	2.1810592e-10	1.3168659e-10	0.9979029	-1.2913401e-16	0.15893824
6.227282504957241e-10	6.9958504e-11	1.5637783e-10	0.9979029	-1.2913401e-16	0.15893902
6.251207262351128e-10	6.5843296e-11	1.8929948e-10	0.9979029	-1.2913401e-16	0.15893824
6.27513334589193e-10	9.876495e-11	-6.5843296e-11	0.9979029	-1.2913401e-16	0.15893863
6.302048414000078e-10	4.732487e-11	-9.464974e-11	0.9979029	-1.2913401e-16	0.15893863
6.325973741208761e-10	3.2921648e-11	-6.5843296e-11	0.997903	-1.2913401e-16	0.15893863
6.352888594955794e-10	-1.6460824e-11	-6.9958504e-11	0.9979029	-1.2913401e-16	0.15893824
6.376816089389245e-10	1.1934098e-10	-1.3168659e-10	0.9979029	-1.2913401e-16	0.15893824
6.400739979676423e-10	1.6460824e-10	1.3168659e-10	0.9979029	-1.2913401e-16	0.15893863
6.427656379624174e-10	1.4814742e-10	6.5843296e-11	0.9979029	-1.2913401e-16	0.15893824
6.451580477129792e-10	5.7612887e-11	0	0.9979029	-1.2913401e-16	0.15893863
6.475506627650584e-10	-4.115206e-11	-5.7612887e-11	0.9979029	-1.2913401e-16	0.15893863
6.502422739957695e-10	1.7283866e-10	-6.5843296e-11	0.99790287	-1.2913401e-16	0.15893863
6.526348349907227e-10	4.3209664e-10	0	0.997903	-1.2913401e-16	0.15893824
6.550272580251701e-10	2.674884e-10	2.2222113e-10	0.997903	-1.2913401e-16	0.15893824
6.577190571802257e-10	9.2592135e-11	1.975299e-10	0.9979029	-1.2913401e-16	0.15893824
6.601113792773773e-10	7.407371e-11	6.5843296e-11	0.9979029	-1.2913401e-16	0.15893863
6.625039994609427e-10	1.4197461e-10	6.5843296e-11	0.9979029	-1.2913401e-16	0.15893863
6.651955445089656e-10	1.6460824e-10	-6.5843296e-11	0.997903	-1.2913401e-16	0.15893902
6.675881408108644e-10	1.4197461e-10	-6.5843296e-11	0.9979029	-1.2913401e-16	0.15893863
6.7027961417571e-10	1.8106906e-10	-1.3168659e-10	0.9979029	-1.2913401e-16	0.15893863
6.726723778401881e-10	8.024652e-11	0	0.99790287	-1.2913401e-16	0.15893863
6.750647002207656e-10	5.1440074e-11	1.3168659e-10	0.9979029	-1.2913401e-16	0.15893863
6.777564704015207e-10	4.732487e-11	6.5843296e-11	0.997903	-1.2913401e-16	0.15893863
6.801488316982533e-10	5.5555283e-11	1.3168659e-10	0.997903	-1.2913401e-16	0.15893824
6.825414405926543e-10	7.8188914e-11	3.2921648e-11	0.9979029	-1.2913401e-16	0.15893824
6.852330171364098e-10	5.7612887e-11	1.3168659e-10	0.9979029	-1.2913401e-16	0.15893863
6.876255224105974e-10	2.2633633e-11	0	0.9979029	-1.2913401e-16	0.15893863
6.900181006341124e-10	4.115206e-11	5.7612887e-11	0.9979029	-1.2913401e-16	0.15893863
6.92709585827409e-10	-5.967049e-11	0	0.997903	-1.2913401e-16	0.15893824
6.951022478280077e-10	3.2921648e-11	-9.464974e-11	0.9979029	-1.2913401e-16	0.15893863
6.977937049438205e-10	2.4896996e-10	-6.5843296e-11	0.9979029	-1.2913401e-16	0.15893863
7.001864502992646e-10	6.79009e-11	-1.3168659e-10	0.9979029	-1.2913401e-16	0.15893902
7.025787020072361e-10	9.6707344e-11	0	0.997903	-1.2913401e-16	0.15893824
7.052705279799724e-10	6.79009e-11	-1.975299e-10	0.9979029	-1.2913401e-16	0.15893863
7.076627882437864e-10	2.078179e-10	-1.3168659e-10	0.9979029	-1.2913401e-16	0.15893863
7.100556187167535e-10	3.2510128e-10	6.5843296e-11	0.9979029	-1.2913401e-16	0.15893824
7.127469593773013e-10	8.024652e-11	6.5843296e-11	0.997903	-1.2913401e-16	0.15893863
7.151397084354838e-10	5.349768e-11	6.5843296e-11	0.997903	-1.2913401e-16	0.15893824
7.175322491154025e-10	9.053453e-11	-1.2757138e-10	0.997903	-1.2913401e-16	0.15893863
7.20223698831246e-10	1.11110565e-10	0	0.9979029	-1.2913401e-16	0.15893824
7.226163567920083e-10	7.613131e-11	-6.5843296e-11	0.9979029	-1.2913401e-16	0.15893863
7.250086583740837e-10	1.995875e-10	6.5843296e-11	0.99790287	-1.2913401e-16	0.15893863
7.277004740858068e-10	2.2427873e-10	0	0.997903	-1.2913401e-16	0.15893824
7.300928363096017e-10	1.1934098e-10	6.5843296e-11	0.997903	-1.2913401e-16	0.15893824
7.327845164337058e-10	3.4979252e-11	-8.230412e-11	0.9979029	-1.2913401e-16	0.15893863
7.351770656136753e-10	-1.6460824e-11	0	0.997903	-1.2913401e-16	0.15893824
7.375696149922788e-10	8.641933e-11	-1.3168659e-10	0.9979029	-1.2913401e-16	0.15893824
7.40261151016434e-10	7.8188914e-11	0	0.997903	-1.2913401e-16	0.15893824
7.42653816281512e-10	-1.23456185e-11	6.5843296e-11	0.997903	-1.2913401e-16	0.15893824
7.450462940726556e-10	1.6460824e-10	6.5843296e-11	0.997903	-1.2913401e-16	0.15893863
7.477379033979661e-10	9.876495e-11	1.3168659e-10	0.9979029	-1.2913401e-16	0.15893824
7.501303869600946e-10	1.0288015e-11	2.4691235e-10	0.9979029	-1.2913401e-16	0.15893863
7.525230671380397e-10	-3.0864044e-11	-6.5843296e-11	0.9979029	-1.2913401e-16	0.15893824
7.552144971579128e-10	-2.057603e-11	-1.6049304e-10	0.9979029	-1.2913401e-16	0.15893863
7.576070747325714e-10	2.8806443e-11	-1.3168659e-10	0.9979029	-1.2913401e-16	0.15893863
7.602987426893883e-10	5.967049e-11	-1.975299e-10	0.9979029	-1.2913401e-16	0.15893824
7.626911581204887e-10	2.7983402e-10	-6.5843296e-11	0.9979029	-1.2913401e-16	0.15893863
7.650837410063251e-10	2.4691235e-10	6.5843296e-11	0.9979029	-1.2913401e-16	0.15893863
7.677752902984699e-10	1.8518428e-11	0	0.997903	-1.2913401e-16	0.15893863
7.701678333589279e-10	1.4608982e-10	-1.3168659e-10	0.9979029	-1.2913401e-16	0.15893824
7.725604270767113e-10	1.9341469e-10	-6.172809e-11	0.9979029	-1.2913401e-16	0.15893824
7.752518612519736e-10	1.4608982e-10	0	0.9979029	-1.2913401e-16	0.15893824
7.776446702208462e-10	1.6255064e-10	1.7283866e-10	0.9979029	-1.2913401e-16	0.15893863
7.800368880023524e-10	5.5555283e-11	1.3168659e-10	0.997903	-1.2913401e-16	0.15893787
7.82728671096673e-10	2.674884e-11	0	0.9979029	-1.2913401e-16	0.15893824
7.851210978937178e-10	6.1728092e-12	1.0699536e-10	0.9979029	-1.2913401e-16	0.15893902
7.875138028748533e-10	6.1728092e-12	0	0.99790287	-1.2913401e-16	0.15893863
7.902052317959448e-10	7.407371e-11	-1.3168659e-10	0.997903	-1.2913401e-16	0.15893824
7.925978283920318e-10	2.3045155e-10	-1.3168659e-10	0.997903	-1.2913401e-16	0.15893824
7.952894726200567e-10	1.5226262e-10	0	0.99790287	-1.2913401e-16	0.15893824
7.976818757121946e-10	2.716036e-10	1.3991701e-10	0.9979029	-1.2913401e-16	0.15893824
8.000745387858554e-10	1.975299e-10	6.5843296e-11	0.9979029	-1.2913401e-16	0.15893902
8.027660941995469e-10	4.732487e-11	1.3168659e-10	0.997903	-1.2913401e-16	0.15893824
8.051586843854059e-10	-3.9094457e-11	-1.2757138e-10	0.997903	-1.2913401e-16	0.15893863
8.075512403390168e-10	-1.8518428e-11	-1.3168659e-10	0.997903	-1.2913401e-16	0.15893863
8.102428113859661e-10	2.2016353e-10	6.5843296e-11	0.9979029	-1.2913401e-16	0.15893824
8.126353591804136e-10	2.3868196e-10	6.5843296e-11	0.9979029	-1.2913401e-16	0.15893824
8.150278102595371e-10	2.6337318e-10	5.349768e-11	0.9979029	-1.2913401e-16	0.15893863
8.177194633011072e-10	8.230412e-11	3.950598e-10	0.997903	-1.2913401e-16	0.15893863
8.201120413550349e-10	6.378569e-11	1.4814742e-10	0.997903	-1.2913401e-16	0.15893824
8.225045727730102e-10	2.057603e-11	-1.975299e-10	0.9979029	-1.2913401e-16	0.15893863
8.251960814007942e-10	1.378594e-10	-4.9382474e-11	0.9979029	-1.2913401e-16	0.15893863
8.275887207176785e-10	1.5843543e-10	-6.5843296e-11	0.9979029	-1.2913401e-16	0.15893824
8.302803727757544e-10	2.674884e-10	-6.5843296e-11	0.9979029	-1.2913401e-16	0.15893824
8.326728738920476e-10	1.6255064e-10	6.5843296e-11	0.997903	-1.2913401e-16	0.15893863
8.350652528808229e-10	-8.230412e-12	1.975299e-10	0.9979029	-1.2913401e-16	0.15893824
8.377570956867699e-10	3.0864044e-11	1.5637783e-10	0.9979029	-1.2913401e-16	0.15893863
8.401494589100544e-10	6.5843296e-11	-1.975299e-10	0.9979029	-1.2913401e-16	0.15893824
8.425421030309194e-10	1.378594e-10	-5.7612887e-11	0.9979029	-1.2913401e-16	0.15893863
8.45233553735927e-10	9.464974e-11	4.9382474e-11	0.9979029	-1.2913401e-16	0.15893863
8.476261826747178e-10	8.024652e-11	4.115206e-11	0.9979029	-1.2913401e-16	0.15893824
8.500187250392528e-10	1.3991701e-10	-1.975299e-10	0.99790287	-1.2913401e-16	0.15893824
8.527103000842955e-10	1.2139859e-10	1.3168659e-10	0.997903	-1.2913401e-16	0.15893863
8.551027511463329e-10	1.8312667e-10	1.975299e-10	0.997903	-1.2913401e-16	0.15893863
8.577945377966652e-10	9.876495e-11	6.5843296e-11	0.9979029	-1.2913401e-16	0.15893863
8.601868313643612e-10	9.2592135e-11	-6.5843296e-11	0.9979029	-1.2913401e-16	0.15893902
8.625796070306931e-10	2.4691237e-11	1.6460824e-11	0.9979029	-1.2913401e-16	0.15893824
8.652709674422547e-10	9.2592135e-11	-6.5843296e-11	0.997903	-1.2913401e-16	0.15893824
8.676637623423199e-10	8.641933e-11	-1.975299e-10	0.997903	-1.2913401e-16	0.15893824
8.70056113468365e-10	2.1810592e-10	-6.5843296e-11	0.997903	-1.2913401e-16	0.15893824
8.727477341270494e-10	1.3991701e-10	6.5843296e-11	0.9979029	-1.2913401e-16	0.15893863
8.751403268829514e-10	-6.9958504e-11	0	0.9979029	-1.2913401e-16	0.15893863
8.775328871816422e-10	9.464974e-11	0	0.9979029	-1.2913401e-16	0.15893902
8.802242875366627e-10	1.5432022e-10	0	0.9979029	-1.2913401e-16	0.15893824
8.826170010221394e-10	7.613131e-11	0	0.997903	-1.2913401e-16	0.15893824
8.850095214023308e-10	6.9958504e-11	-6.5843296e-11	0.9979029	-1.2913401e-16	0.15893824
8.877011636577557e-10	2.2633634e-10	-6.5843296e-11	0.9979029	-1.2913401e-16	0.15893863
8.900937376371969e-10	1.6049304e-10	6.5843296e-11	0.9979029	-1.2913401e-16	0.15893824