# t (s)	mx ()	my ()	mz ()	E_total (J)	MaxAngle (rad)
0	1.3374419e-09	1.975299e-10	0.9795479	-2.0725794e-17	0.26631457
2.5202282692789114e-12	2.9999851e-09	1.7613082e-09	0.97405154	-2.0704025e-17	0.24678785
5.047372330351155e-12	3.3909298e-09	4.5267265e-09	0.9693902	-2.0662816e-17	0.23815756
7.521232670634474e-12	1.218101e-09	7.539057e-09	0.96612203	-2.0607585e-17	0.23309845
1.0043725262952135e-11	-3.3909298e-09	9.942338e-09	0.9646233	-2.0540746e-17	0.2328152
1.2515818162105592e-11	-8.9546885e-09	1.012958e-08	0.9651809	-2.0469512e-17	0.23222157
1.5036646666514414e-11	-1.4353839e-08	5.7283667e-09	0.9677349	-2.0393491e-17	0.23308992
1.7507523641125182e-11	-1.6921728e-08	-7.901196e-10	0.97187376	-2.031519e-17	0.23521395
2.0027461583791835e-11	-1.636206e-08	-1.0271554e-08	0.9771359	-2.0227938e-17	0.24151064
2.2547044907939162e-11	-1.0238633e-08	-2.0674795e-08	0.98212016	-2.0126135e-17	0.26911938
2.5017007319635128e-11	3.551423e-09	-2.8049245e-08	0.9836285	-2.0010123e-17	0.347455
2.753606263958142e-11	2.1794131e-08	-2.5020453e-08	0.97520465	-1.993434e-17	0.21484545
3.0005548421731066e-11	3.2658274e-08	-1.198348e-08	0.95324636	-1.999984e-17	0.21481973
3.25242666937856e-11	3.476526e-08	-1.9752988e-09	0.922329	-2.013039e-17	0.21951641
3.504283833374277e-11	3.3514237e-08	8.032882e-09	0.8923274	-2.0219385e-17	0.22651918
3.751194156342052e-11	2.2452564e-08	2.4394941e-08	0.87003505	-2.0254512e-17	0.22490576
4.0030372506044805e-11	1.1555499e-08	3.5868137e-08	0.8543317	-2.0268924e-17	0.21635942
4.2548546735100636e-11	6.4732193e-09	3.8864005e-08	0.8440838	-2.0270124e-17	0.21385378
4.501721346008596e-11	4.0617083e-09	3.6971013e-08	0.8382006	-2.0261983e-17	0.21397394
4.753533466570539e-11	-2.757188e-10	3.4987483e-08	0.8354768	-2.0249603e-17	0.2167331
5.000414727833316e-11	-3.7201462e-09	3.1028655e-08	0.83515096	-2.0237791e-17	0.2180692
5.252232378461023e-11	-7.555518e-09	2.7324969e-08	0.83652556	-2.0228239e-17	0.21860002
5.504046965601531e-11	-1.0106946e-08	2.3473136e-08	0.8390582	-2.0221555e-17	0.21835224
5.750921976517152e-11	-1.037032e-08	1.998344e-08	0.84220153	-2.0217257e-17	0.22000664
6.00273584523358e-11	-8.7242364e-09	1.6806501e-08	0.8457763	-2.0214405e-17	0.22089416
6.25455115324181e-11	-6.3044956e-09	1.4485526e-08	0.8495451	-2.0212415e-17	0.22059636
6.50142795558229e-11	-4.7736393e-09	1.4123387e-08	0.8532934	-2.0210807e-17	0.22208336
6.753242750120141e-11	-4.707796e-09	1.5341488e-08	0.8570526	-2.0209132e-17	0.22273459
7.000118769683995e-11	-5.333307e-09	1.5967e-08	0.86060506	-2.020719e-17	0.22217238
7.251931688951577e-11	-7.2756845e-09	1.5604861e-08	0.86407775	-2.0204666e-17	0.22347271
7.503744107733844e-11	-8.625472e-09	1.5539019e-08	0.86741763	-2.0201402e-17	0.22370175
7.750618912496156e-11	-9.5802e-09	1.5143959e-08	0.8705922	-2.0197325e-17	0.2228263
8.002431747957488e-11	-1.0403241e-08	1.4156309e-08	0.8737579	-2.0192112e-17	0.2208343
8.254241500780034e-11	-1.139089e-08	1.4419682e-08	0.876881	-2.0185697e-17	0.21931896
8.50111623604446e-11	-1.3366189e-08	1.3563719e-08	0.879937	-2.0178098e-17	0.21852635
8.752926621605593e-11	-1.4683056e-08	1.3168659e-08	0.883091	-2.0168817e-17	0.21652761
9.004738189769698e-11	-1.695465e-08	1.198348e-08	0.8863303	-2.0157743e-17	0.2162825
9.251610834070719e-11	-1.919332e-08	9.3497485e-09	0.88963914	-2.0144811e-17	0.21532357
9.503422625498499e-11	-2.1695367e-08	7.637823e-09	0.8932055	-2.0129065e-17	0.21434191
9.750297845050576e-11	-2.3934039e-08	4.3456576e-09	0.89695114	-2.0110554e-17	0.2142469
1.0002109764465529e-10	-2.6205631e-08	1.3827093e-09	0.9010998	-2.0087745e-17	0.21331725
1.0253922342149986e-10	-2.9003973e-08	-3.1604783e-09	0.9056666	-2.0059932e-17	0.21353786
1.0500798472071228e-10	-3.11768e-08	-8.9546885e-09	0.9106459	-2.0026474e-17	0.21369222
1.0752612510535498e-10	-3.331671e-08	-1.6526668e-08	0.9163408	-1.998424e-17	0.2131722
1.1004428046149636e-10	-3.334963e-08	-2.6337318e-08	0.92275286	-1.9931456e-17	0.2136644
1.1251306216849345e-10	-3.160478e-08	-3.8353722e-08	0.92978126	-1.9866402e-17	0.21437946
1.1503121991225715e-10	-2.436202e-08	-5.3069698e-08	0.9376312	-1.9782031e-17	0.21456766
1.175000267197886e-10	-9.646043e-09	-6.8740405e-08	0.9456543	-1.9674817e-17	0.21533416
1.200182020955332e-10	1.4090466e-08	-8.269918e-08	0.95323837	-1.9528728e-17	0.21338932
1.2253640589098688e-10	4.8789882e-08	-9.0337004e-08	0.9580058	-1.9330409e-17	0.20879425
1.2500522751020043e-10	8.999956e-08	-8.388436e-08	0.9553935	-1.9098174e-17	0.20442197
1.2752343088385455e-10	1.286578e-07	-5.10944e-08	0.9384147	-1.8949e-17	0.20978886
1.3004164455326168e-10	1.4176062e-07	1.0403241e-08	0.9053031	-1.9044414e-17	0.22954239
1.325104675562339e-10	1.2668251e-07	6.281451e-08	0.8686561	-1.9322808e-17	0.24241985
1.350286702779324e-10	9.534109e-08	1.0008181e-07	0.8374522	-1.9614297e-17	0.2132629
1.3754708073072993e-10	4.312736e-08	1.2087389e-07	0.8118955	-1.9818304e-17	0.20243554
1.4001618062141265e-10	-1.0205711e-08	1.17487076e-07	0.7918052	-1.9935898e-17	0.20393017
1.425341007573847e-10	-4.953062e-08	9.371147e-08	0.77641	-1.999975e-17	0.2074051
1.4500273244902462e-10	-6.802642e-08	6.100382e-08	0.7661097	-2.0029427e-17	0.21115087
1.4752087048830007e-10	-6.893793e-08	2.9201502e-08	0.7599075	-2.004153e-17	0.21231261
1.500390093496696e-10	-5.8172553e-08	5.3991505e-09	0.75741374	-2.004536e-17	0.21276669
1.5250771886185738e-10	-4.4411305e-08	-9.1522185e-09	0.75802666	-2.0046841e-17	0.21256563
1.550258245226614e-10	-3.1259106e-08	-1.5143959e-08	0.7610519	-2.0049156e-17	0.21204089
1.575439422782385e-10	-2.1399071e-08	-1.5868235e-08	0.7659135	-2.0053775e-17	0.21248762
1.6001271280193396e-10	-1.4839433e-08	-1.5209801e-08	0.7721176	-2.006105e-17	0.21318743
1.6253089657878216e-10	-1.08147615e-08	-1.438676e-08	0.77959186	-2.007124e-17	0.21341746
1.650490773612273e-10	-6.3538783e-09	-1.398347e-08	0.7878449	-2.0083828e-17	0.21395487
1.6751787416421002e-10	-3.0287917e-09	-1.2501996e-08	0.79633737	-2.009787e-17	0.21526721
1.700360319551453e-10	5.2674637e-10	-9.759211e-09	0.8051155	-2.0113151e-17	0.2156394
1.7250483358446834e-10	1.6460824e-09	-6.271574e-09	0.8136051	-2.0128276e-17	0.21661997
1.750229925917518e-10	1.9094557e-09	-2.518506e-09	0.82193935	-2.0143067e-17	0.21842158
1.7754115088449427e-10	1.6131608e-09	1.8106906e-10	0.82976407	-2.015653e-17	0.21912107
1.8000990896737693e-10	7.901196e-10	2.419741e-09	0.83681065	-2.0167992e-17	0.22017974
1.8252804608143486e-10	-5.5966803e-10	4.4444226e-09	0.8432961	-2.0177647e-17	0.2214905
1.8504618280605967e-10	-1.7448474e-09	5.4979155e-09	0.84907824	-2.0185144e-17	0.2214951
1.8751493629132586e-10	-3.094635e-09	6.5843295e-09	0.8541227	-2.019041e-17	0.22276238
1.900330462921974e-10	-4.971169e-09	5.8600533e-09	0.8587214	-2.0193724e-17	0.2228522
1.9250179336323654e-10	-7.1604584e-09	4.510266e-09	0.8627917	-2.0195069e-17	0.22321033
1.9501991003821753e-10	-8.18103e-09	1.7448474e-09	0.8665939	-2.0194619e-17	0.22380464
1.9753802352618652e-10	-7.703666e-09	1.1522577e-09	0.87013364	-2.0192438e-17	0.22308348
2.0000674749864454e-10	-7.341528e-09	4.609031e-10	0.8734275	-2.0188686e-17	0.22115381
2.0252485168265968e-10	-7.2756845e-09	-2.6337318e-10	0.87667733	-2.0183247e-17	0.21931924
2.0504295644181634e-10	-7.308606e-09	-1.0534927e-09	0.87987983	-2.0176154e-17	0.21854587
2.0751169154467213e-10	-8.230412e-09	-1.9752988e-09	0.88303024	-2.0167494e-17	0.21657284
2.1002978734254388e-10	-7.637823e-09	-3.4238514e-09	0.88631004	-2.0156726e-17	0.21626472
2.1254791564351082e-10	-8.296255e-09	-5.333307e-09	0.88971406	-2.0143709e-17	0.21526721
2.1501665298530865e-10	-7.703666e-09	-7.506136e-09	0.89323103	-2.0128362e-17	0.21433604
2.1753476039140194e-10	-6.0246617e-09	-9.481435e-09	0.8970689	-2.0109497e-17	0.21420203
2.200035043950624e-10	-4.609031e-09	-1.1193361e-08	0.9011519	-2.0087103e-17	0.21333808
2.22521633966392e-10	-3.2921648e-09	-1.3102816e-08	0.905731	-2.0059257e-17	0.21351594
2.2503976356766198e-10	-1.5143958e-09	-1.5012272e-08	0.9108285	-2.0024977e-17	0.21373692
2.2750853059060878e-10	1.4485525e-09	-1.698757e-08	0.9164309	-1.9983363e-17	0.2132336
2.3002667781887204e-10	5.5966805e-09	-1.8831184e-08	0.9228562	-1.9930407e-17	0.2136138
2.3254482623193406e-10	1.139089e-08	-1.9884675e-08	0.9300454	-1.9863649e-17	0.21423541
2.350135965956151e-10	1.876534e-08	-1.9489615e-08	0.93775713	-1.978041e-17	0.21465217
2.3753176584060473e-10	2.7259125e-08	-1.5934077e-08	0.9459392	-1.9670246e-17	0.21536988
2.4000056899392044e-10	3.7464837e-08	-9.3497485e-09	0.9533418	-1.952591e-17	0.21328487
2.4251876251276497e-10	4.674874e-08	3.6872247e-09	0.958034	-1.9326676e-17	0.2086743
2.450369577736528e-10	5.175283e-08	2.1991662e-08	0.95507234	-1.909005e-17	0.20424896
2.475057804573583e-10	4.4641755e-08	4.292983e-08	0.937994	-1.894831e-17	0.21019317
2.500239703062833e-10	2.0839403e-08	5.912728e-08	0.9046874	-1.9047812e-17	0.22968276
2.5254214971764314e-10	-4.0822843e-09	6.14318e-08	0.8674223	-1.9333908e-17	0.2420327
2.55010986818117e-10	-2.35719e-08	5.4254876e-08	0.83699745	-1.961826e-17	0.21281101
2.575293883504666e-10	-4.036194e-08	3.5701472e-08	0.8115223	-1.982075e-17	0.2024889
2.6004784334429265e-10	-4.678166e-08	1.3419687e-08	0.7911625	-1.9938937e-17	0.20393223
2.6251637724031583e-10	-4.38681e-08	-5.333307e-09	0.7761972	-2.0000407e-17	0.20739381
2.650343661289747e-10	-3.357185e-08	-1.797522e-08	0.76581013	-2.0030066e-17	0.21116595
2.675030960414203e-10	-2.1061625e-08	-2.3045153e-08	0.7598304	-2.004161e-17	0.21233553
2.700212378272717e-10	-9.59666e-09	-2.2715938e-08	0.7573912	-2.0045364e-17	0.21276641
2.7253933842797435e-10	-1.2674835e-09	-2.0016362e-08	0.7580865	-2.0046868e-17	0.21255517
2.750080592059436e-10	3.3909298e-09	-1.6230373e-08	0.7611056	-2.0049184e-17	0.2120273
2.7752616797180486e-10	5.9588183e-09	-1.237854e-08	0.765993	-2.0053844e-17	0.21251081
2.800443164160982e-10	7.7695095e-09	-9.646043e-09	0.77235484	-2.006134e-17	0.2131739
2.8251311662239076e-10	8.032882e-09	-6.9300072e-09	0.77970773	-2.0071397e-17	0.21345207
2.8503127564754143e-10	8.493785e-09	-5.012321e-09	0.78797036	-2.0084016e-17	0.2139327
2.875000683974975e-10	9.053453e-09	-1.9999902e-09	0.79646724	-2.0098085e-17	0.215282
2.9001822260063995e-10	8.460864e-09	2.0370271e-10	0.80524576	-2.0113378e-17	0.21568899
2.9253636743683763e-10	6.814781e-09	1.4156308e-09	0.8138994	-2.0128798e-17	0.2165695
2.950051578788793e-10	4.9053255e-09	1.6049304e-09	0.8220605	-2.0143272e-17	0.21843396
2.9752328806937565e-10	3.6872247e-09	1.9094557e-09	0.82987654	-2.0156719e-17	0.21916686
3.000414246634789e-10	2.2386721e-09	2.2880546e-09	0.8370471	-2.016836e-17	0.22014672
3.025101824056185e-10	1.1851794e-09	1.0699536e-09	0.8433881	-2.0177776e-17	0.22151275
3.0502830098496465e-10	1.9094557e-09	5.2674637e-10	0.84915996	-2.0185239e-17	0.22147503
3.075464004881934e-10	1.8106907e-09	5.5966803e-10	0.8542906	-2.0190554e-17	0.22280096
3.1001514248883927e-10	1.7448474e-09	-1.6460824e-10	0.8587869	-2.0193757e-17	0.22283873
3.125332381672091e-10	1.9094557e-09	-1.6460824e-10	0.86292875	-2.0195087e-17	0.22325423
3.150019562492267e-10	1.2345618e-09	-9.218062e-10	0.8666489	-2.01946e-17	0.2238033
3.175200527873604e-10	1.9094557e-09	-1.7119257e-09	0.8701854	-2.019239e-17	0.22306354
3.2003814654929163e-10	3.1604783e-09	-1.3497876e-09	0.87354153	-2.0188524e-17	0.22106521
3.2250687503920205e-10	4.2798143e-09	-1.1851794e-09	0.8767258	-2.0183152e-17	0.21931759
3.250249763454316e-10	5.135777e-09	-8.5596286e-10	0.87992805	-2.0176035e-17	0.21852387
3.2754306184549503e-10	4.971169e-09	0	0.8831424	-2.0167155e-17	0.21647933
3.300117821546615e-10	5.333307e-09	5.2674637e-10	0.8863603	-2.0156544e-17	0.21626027
3.3252988521950297e-10	5.366229e-09	1.5802392e-09	0.8897665	-2.0143492e-17	0.21524042
3.350479922140906e-10	5.267464e-09	1.6460824e-09	0.8933593	-2.0127764e-17	0.21436349
3.3751672482535e-10	5.6625233e-09	2.1728288e-09	0.897129	-2.0109184e-17	0.21418352
3.400348335959209e-10	6.9793895e-09	3.2921648e-09	0.901303	-2.0086228e-17	0.21339214
3.425035764021778e-10	7.341528e-09	4.5431876e-09	0.9058035	-2.0058794e-17	0.21349314
3.450216922385537e-10	7.341528e-09	6.847703e-09	0.91090935	-2.0024403e-17	0.21375294
3.475398149976304e-10	6.913546e-09	8.296255e-09	0.91664076	-1.9981726e-17	0.21335948
3.5000857137473996e-10	5.79421e-09	1.1654263e-08	0.9229585	-1.9929516e-17	0.21355812
3.525267081030521e-10	2.9629483e-09	1.4946428e-08	0.930159	-1.9862522e-17	0.21416894
3.5504486070488944e-10	-1.4485525e-09	1.7909377e-08	0.93803823	-1.9777076e-17	0.21484461
3.5751363608139405e-10	-7.868274e-09	1.9621302e-08	0.9460605	-1.9668348e-17	0.21537739
3.600318050091155e-10	-1.6658355e-08	1.9489615e-08	0.9535707	-1.9519965e-17	0.21303326
3.6250060487453557e-10	-2.7324969e-08	1.5012272e-08	0.95806223	-1.932327e-17	0.20856062
3.6501879659053096e-10	-3.6691176e-08	5.6625233e-09	0.9549333	-1.908671e-17	0.20416696
3.675369924502664e-10	-3.9670585e-08	-9.613121e-09	0.93708044	-1.8947293e-17	0.21121287
3.7000581353785375e-10	-3.236198e-08	-2.7127438e-08	0.90411484	-1.9051147e-17	0.22975631
3.7252399499537175e-10	-2.0098666e-08	-3.7662367e-08	0.86690784	-1.9338617e-17	0.24181525
3.7504218637439413e-10	-5.530837e-09	-4.256769e-08	0.8360301	-1.9626895e-17	0.21181108
3.775112234386831e-10	1.2115167e-08	-3.868911e-08	0.81117946	-1.9823074e-17	0.20253482
3.8002967496068827e-10	2.7061596e-08	-2.789081e-08	0.7908968	-1.9940216e-17	0.20392841
3.82547554240292e-10	3.3473086e-08	-1.3728328e-08	0.7757581	-2.0001884e-17	0.20747398
3.8501616567351766e-10	3.2125357e-08	-1.2839443e-09	0.76568955	-2.0030339e-17	0.21117023
3.875342824659678e-10	2.594226e-08	7.012311e-09	0.7596873	-2.0041832e-17	0.21237992
3.9000301679163075e-10	1.9308548e-08	1.1720107e-08	0.7573802	-2.0045394e-17	0.21276443
3.925210892948923e-10	1.34649545e-08	1.27736e-08	0.75811684	-2.0046893e-17	0.21255206
3.95039174530138e-10	7.802431e-09	1.2543148e-08	0.7612464	-2.0049303e-17	0.21199557
3.975079132404425e-10	6.008201e-09	1.1423812e-08	0.76607794	-2.0053934e-17	0.2125334
4.0002605883119327e-10	4.7736393e-09	1.0074024e-08	0.77245945	-2.0061472e-17	0.21316741
4.0254421378763327e-10	3.8682937e-09	9.18514e-09	0.77998245	-2.0071796e-17	0.21352662
4.0501299199795697e-10	3.2592433e-09	8.362099e-09	0.7880977	-2.0084223e-17	0.21390994
4.0753114300864505e-10	2.4032802e-09	8.158396e-09	0.79677	-2.0098603e-17	0.21531296
4.100492916812311e-10	1.8436124e-09	6.981447e-09	0.80554795	-2.0113912e-17	0.21580034
4.125180589067153e-10	2.2386721e-09	6.4156063e-09	0.8140265	-2.0129025e-17	0.21654397
4.150362030941467e-10	1.0534927e-09	4.9259015e-09	0.8223398	-2.014376e-17	0.2184609
4.1750495781072173e-10	1.9752988e-09	4.2798143e-09	0.8299886	-2.0156906e-17	0.21921346
4.2002308384634744e-10	3.2263217e-09	3.2263217e-09	0.8371486	-2.0168518e-17	0.22013116
4.225412010481842e-10	4.1481276e-09	3.374469e-09	0.8435987	-2.017807e-17	0.22156347
4.2500993311749e-10	5.0040905e-09	2.6666536e-09	0.8492409	-2.0185334e-17	0.22145359
4.275280216506263e-10	6.650173e-09	3.4238514e-09	0.8543626	-2.0190618e-17	0.22281769
4.3004611519023814e-10	6.090505e-09	4.213971e-09	0.8589367	-2.0193836e-17	0.22280635
4.3251484206574843e-10	6.090505e-09	5.135777e-09	0.8629876	-2.0195089e-17	0.22327173
4.350329357887606e-10	5.7283667e-09	6.617251e-09	0.86677474	-2.0194553e-17	0.22380088
4.375016622520747e-10	5.267464e-09	6.847703e-09	0.87023646	-2.0192346e-17	0.22304252
4.400197370837259e-10	5.1028555e-09	7.7695095e-09	0.87359047	-2.0188455e-17	0.22102715
4.425378218485658e-10	3.6872247e-09	8.823002e-09	0.87683654	-2.0182937e-17	0.21930937
4.450065252986455e-10	2.6666536e-09	9.020532e-09	0.8799755	-2.0175915e-17	0.21850215
4.475246169686473e-10	2.436202e-09	9.613121e-09	0.88319063	-2.0167006e-17	0.2164402
4.5004270851137765e-10	1.7448474e-09	1.0732458e-08	0.8864752	-2.0156137e-17	0.21625027
4.5251141620419704e-10	1.3497876e-09	1.1061674e-08	0.8898184	-2.0143279e-17	0.21521363
4.5502951315387374e-10	-5.2674637e-10	1.2312697e-08	0.8934145	-2.0127508e-17	0.21437526
4.575476014340341e-10	-2.0411421e-09	1.3497876e-08	0.89726686	-2.0108463e-17	0.21414061
4.6001634202812745e-10	-4.872404e-09	1.3563719e-08	0.9013679	-2.0085854e-17	0.21341464
4.625344407449192e-10	-7.5719795e-09	1.3958779e-08	0.9059702	-2.0057724e-17	0.21344025
4.6500317275444894e-10	-1.1193361e-08	1.4485526e-08	0.9109895	-2.0023836e-17	0.21376698
4.675212942773225e-10	-1.537441e-08	1.3827092e-08	0.9167311	-1.9981016e-17	0.21341127
4.70039415907322e-10	-2.0510187e-08	1.158842e-08	0.92319375	-1.9927461e-17	0.21342365
4.725081756112917e-10	-2.6765301e-08	8.164569e-09	0.9302713	-1.9861404e-17	0.21409994
4.750263213903496e-10	-3.3448394e-08	1.316866e-09	0.93815887	-1.9775639e-17	0.21492119
4.775444653617175e-10	-3.851833e-08	-1.0139868e-08	0.9463386	-1.9663953e-17	0.21537796
4.800132674356433e-10	-4.0296097e-08	-2.5415513e-08	0.9536679	-1.9517396e-17	0.21291792
4.825314418114031e-10	-3.6773482e-08	-4.6221995e-08	0.9581207	-1.9315397e-17	0.20830368
4.85000251661794e-10	-2.3399062e-08	-6.689679e-08	0.95479244	-1.9083426e-17	0.20407903
4.875184385292036e-10	4.032902e-09	-7.9143646e-08	0.93668234	-1.8946962e-17	0.21158896
4.900366220784118e-10	3.9868116e-08	-7.150582e-08	0.9027961	-1.9058984e-17	0.23067786
4.925054243974971e-10	6.3868e-08	-5.1621146e-08	0.8664007	-1.9343271e-17	0.24157768
4.950236099873622e-10	7.703666e-08	-2.6896988e-08	0.83561766	-1.963056e-17	0.21137173
4.975420526286814e-10	7.631238e-08	6.6131363e-09	0.81039566	-1.9828343e-17	0.20262133
5.000110924386609e-10	6.2024384e-08	3.511094e-08	0.79063517	-1.994147e-17	0.20392045
5.025289636187653e-10	3.9604743e-08	5.0633496e-08	0.7755717	-2.0002506e-17	0.20759982
5.050469457729745e-10	1.7849706e-08	5.2049128e-08	0.7654156	-2.0030963e-17	0.2111776
5.07515670526556e-10	1.679004e-09	4.510266e-08	0.7596272	-2.0041921e-17	0.21239886
5.100337601120916e-10	-8.888845e-09	3.397514e-08	0.7573576	-2.0045457e-17	0.21276133
5.125024570377833e-10	-1.3563719e-08	2.4526628e-08	0.7581476	-2.0046919e-17	0.2125481
5.150205382784655e-10	-1.418923e-08	1.6263295e-08	0.7613075	-2.0049351e-17	0.21198085
5.17538617838521e-10	-1.2608991e-08	1.0205711e-08	0.76627475	-2.0054144e-17	0.21258427
5.200073793855803e-10	-1.0139868e-08	7.341528e-09	0.77256316	-2.0061606e-17	0.21316122
5.225255277418173e-10	-1.0205711e-08	5.6625233e-09	0.78010035	-2.0071968e-17	0.21355926
5.250436580907387e-10	-8.329177e-09	3.8600634e-09	0.7883909	-2.0084693e-17	0.21385519
5.275124195525774e-10	-6.617251e-09	2.2139808e-09	0.7968993	-2.0098825e-17	0.21532495
5.300305614614068e-10	-4.1810493e-09	9.0946056e-10	0.805677	-2.0114137e-17	0.21584655
5.325487041128325e-10	-2.1728288e-09	4.753063e-10	0.8143189	-2.0129548e-17	0.21648599
5.3501746420742e-10	-7.2427625e-10	1.6872345e-09	0.8224589	-2.014397e-17	0.21847025
5.375355960198514e-10	1.3497876e-09	1.958838e-09	0.83024585	-2.0157334e-17	0.21931484
5.400043206346424e-10	2.732497e-09	3.4238514e-09	0.837249	-2.0168673e-17	0.2201134
5.42522415837387e-10	4.4773443e-09	4.954708e-09	0.84368837	-2.0178193e-17	0.22158273
5.45040511862982e-10	1.876534e-09	6.847703e-09	0.8494269	-2.018555e-17	0.22140095
5.475092410584465e-10	1.3497876e-09	6.716016e-09	0.8544338	-2.0190681e-17	0.22283252
5.500273152540231e-10	-3.6213813e-10	6.847703e-09	0.8590004	-2.0193868e-17	0.22279152
5.525453937290256e-10	1.2510226e-09	6.3868e-09	0.8631228	-2.01951e-17	0.2233129
5.550140895240484e-10	2.436202e-09	7.835352e-09	0.8668283	-2.019453e-17	0.2237982
5.575321677875949e-10	1.876534e-09	9.744808e-09	0.8703541	-2.019224e-17	0.22299375
5.600008632614418e-10	-9.218062e-10	1.0962909e-08	0.8736388	-2.0188383e-17	0.22098908
5.625189376193085e-10	-4.5431876e-09	1.0732458e-08	0.8768838	-2.0182843e-17	0.2193069
5.650370179179322e-10	-6.1234267e-09	9.086375e-09	0.88008535	-2.0175642e-17	0.21845238
5.675057189849001e-10	-6.0575833e-09	7.835352e-09	0.88323826	-2.0166862e-17	0.21639884
5.700237935631622e-10	-5.3991505e-09	7.4402924e-09	0.88652414	-2.0155961e-17	0.216245
5.725418733539517e-10	-5.7283667e-09	8.559629e-09	0.8899382	-2.0142788e-17	0.21514942
5.750105815769633e-10	-8.032882e-09	8.625472e-09	0.8934689	-2.0127253e-17	0.21438563
5.775286636441053e-10	-1.0436163e-08	8.362099e-09	0.8973257	-2.010816e-17	0.21412098
5.800467573714995e-10	-1.3036973e-08	6.716016e-09	0.9015181	-2.008498e-17	0.2134636
5.825154805423423e-10	-1.5868235e-08	4.3456576e-09	0.9060414	-2.0057265e-17	0.21341549
5.850335843593356e-10	-1.7481396e-08	2.2880546e-09	0.91117543	-2.0022517e-17	0.2137976
5.875023088380767e-10	-1.9357929e-08	-8.5596286e-10	0.9168204	-1.9980318e-17	0.21346135
5.900204207195034e-10	-2.1004011e-08	-4.3456576e-09	0.9232941	-1.9926582e-17	0.21336256
5.92538544973908e-10	-2.3045153e-08	-1.0666614e-08	0.9305315	-1.9858805e-17	0.213931
5.950073003819252e-10	-2.4098647e-08	-1.8304437e-08	0.938278	-1.9774212e-17	0.21499301
5.975254448334225e-10	-2.1333229e-08	-3.015623e-08	0.9464567	-1.9662075e-17	0.2153693
6.000436015689052e-10	-1.237854e-08	-4.292983e-08	0.9538897	-1.9511422e-17	0.21263595
6.025123977223164e-10	1.6460824e-09	-5.412319e-08	0.9581427	-1.9312034e-17	0.20819499
6.050305840831773e-10	2.3127457e-08	-6.136595e-08	0.9544542	-1.907592e-17	0.20384863
6.075487662678127e-10	4.9431854e-08	-5.4057345e-08	0.9357488	-1.8946415e-17	0.21230865
6.10017567553617e-10	7.022188e-08	-2.7390811e-08	0.9022348	-1.906238e-17	0.23134221
6.125357358676948e-10	7.5588105e-08	1.1851794e-09	0.86523575	-1.9354013e-17	0.24093604
6.150045640879814e-10	7.005727e-08	2.6584232e-08	0.8352116	-1.9634158e-17	0.21125068
6.17522993777633e-10	4.9250787e-08	4.8129394e-08	0.81006455	-1.9830548e-17	0.20265035
6.200414224387608e-10	2.2419643e-08	5.8874196e-08	0.7900349	-1.9944317e-17	0.2038925
6.225098883107585e-10	-1.5308567e-09	5.6049107e-08	0.7753889	-2.0003112e-17	0.20771979
6.25027858075072e-10	-1.733119e-08	4.2765222e-08	0.7653008	-2.003122e-17	0.21117932
6.27545933578076e-10	-2.2880545e-08	2.8213853e-08	0.75949174	-2.0042128e-17	0.21243815
6.300146377397691e-10	-2.2485485e-08	1.619745e-08	0.757349	-2.004548e-17	0.21275851
6.325326972263747e-10	-1.9275625e-08	7.4073707e-09	0.7582204	-2.0046975e-17	0.21253736
6.350013963502769e-10	-1.5341488e-08	1.876534e-09	0.76136786	-2.0049402e-17	0.21196781
6.37519489674377e-10	-1.1950559e-08	-6.9135464e-10	0.7663588	-2.0054235e-17	0.21260546
6.40037591046089e-10	-8.559629e-09	-1.7448474e-09	0.77280414	-2.0061914e-17	0.21314149
6.425063318264777e-10	-6.617251e-09	-1.9752988e-09	0.7802167	-2.007214e-17	0.21358961
6.450244705353858e-10	-4.971169e-09	-2.057603e-09	0.78851545	-2.0084892e-17	0.21383104
6.475425929189877e-10	-2.732497e-09	-2.078179e-09	0.797199	-2.0099336e-17	0.21534728
6.500113515810857e-10	-9.547279e-10	-1.1049328e-09	0.8058043	-2.0114369e-17	0.21589164
6.525294735950293e-10	5.2674637e-10	-5.514376e-10	0.81444263	-2.0129768e-17	0.21645825
6.55047589770755e-10	1.6460824e-09	1.5020503e-09	0.8227345	-2.0144454e-17	0.21848896
6.575163048859562e-10	1.1851794e-09	2.7489577e-09	0.83035445	-2.0157516e-17	0.21935649
6.600344190056445e-10	1.1851794e-09	3.7201462e-09	0.83748066	-2.0169034e-17	0.22007355
6.625031299678601e-10	1.139912e-09	4.707796e-09	0.8437767	-2.0178317e-17	0.22160226
6.650212235932596e-10	-3.2921648e-11	5.2016205e-09	0.8495054	-2.018564e-17	0.22137761
6.675393008656969e-10	-8.888845e-10	5.629602e-09	0.8545981	-2.0190824e-17	0.22286595
6.700079858210294e-10	-3.950598e-10	4.3456576e-09	0.8590632	-2.0193896e-17	0.22277722
6.725260438591292e-10	-5.925897e-10	5.464994e-09	0.86317986	-2.0195105e-17	0.22332852
6.750440930739392e-10	-2.633732e-09	6.5843295e-09	0.86695224	-2.019448e-17	0.22379363
6.775127792626661e-10	-3.851833e-09	5.0040905e-09	0.87040377	-2.0192195e-17	0.22297192
6.800308303790341e-10	-2.8312617e-09	3.6213814e-09	0.8737509	-2.0188223e-17	0.22089961
6.825488833464597e-10	-1.316866e-09	3.0287917e-09	0.87699324	-2.0182626e-17	0.21929759
6.85017573498907e-10	-8.230412e-10	4.213971e-09	0.8801316	-2.0175522e-17	0.2184312
6.875356285743788e-10	-1.8436124e-09	4.8065605e-09	0.88334876	-2.0166524e-17	0.21630555
6.900043296625476e-10	-3.9835193e-09	5.135777e-09	0.8865726	-2.0155786e-17	0.21623944
6.925223757214762e-10	-5.530837e-09	4.4773443e-09	0.88998866	-2.0142576e-17	0.21512263
6.950404423553635e-10	-6.5843295e-09	2.2386721e-09	0.89359564	-2.0126663e-17	0.21440889
6.975091421964991e-10	-5.5966805e-09	5.925897e-10	0.89738363	-2.0107856e-17	0.21410248
7.000272139277691e-10	-4.4444226e-09	-1.975299e-10	0.9015815	-2.008461e-17	0.21348359
7.025452980348851e-10	-4.411501e-09	1.3168659e-10	0.90620685	-2.0056202e-17	0.21335582
7.050140017213332e-10	-4.5431876e-09	-7.2427625e-10	0.91125375	-2.002196e-17	0.21380967
7.075321106324393e-10	-6.847703e-09	-1.5802392e-09	0.9170283	-1.9978682e-17	0.21357302
7.100008350720269e-10	-8.098725e-09	-4.8065605e-09	0.92339295	-1.9925712e-17	0.21340112
7.125189450317786e-10	-8.164569e-09	-9.1522185e-09	0.9306411	-1.9857705e-17	0.21401662
7.150370724176685e-10	-6.847703e-09	-1.3168659e-08	0.93855506	-1.977088e-17	0.21514578
7.175058391992336e-10	-3.0287917e-09	-1.7909377e-08	0.9465728	-1.9660212e-17	0.21535675
7.200239959242217e-10	2.2386721e-09	-2.2255035e-08	0.9539822	-1.9508891e-17	0.21251081
7.225421521168057e-10	1.0967025e-08	-2.6995751e-08	0.95818764	-1.9304185e-17	0.20794569
7.250109540365125e-10	2.3489596e-08	-2.7522498e-08	0.95430654	-1.9072798e-17	0.2037385
7.275291230858624e-10	3.4172672e-08	-1.7646004e-08	0.9353505	-1.8946286e-17	0.21254726
7.300473045977287e-10	3.7036855e-08	-1.316866e-09	0.90092784	-1.9070439e-17	0.23269764
7.325160881028286e-10	3.4238514e-08	1.1851793e-08	0.86474854	-1.9358524e-17	0.24061984
7.350342796941647e-10	2.5020453e-08	2.2123348e-08	0.8342724	-1.9642434e-17	0.21094403
7.375033382717394e-10	1.2510227e-08	2.7944306e-08	0.80973995	-1.98327e-17	0.20267524
7.400217384547924e-10	3.1604783e-09	2.5964892e-08	0.7897846	-1.9945492e-17	0.2038757
7.425395614024417e-10	-4.4444226e-09	2.276532e-08	0.774968	-2.0004496e-17	0.20798841
7.450081376417443e-10	-8.977322e-09	1.8534887e-08	0.76518893	-2.003147e-17	0.21118045
7.475262112985139e-10	-1.18435635e-08	1.3036973e-08	0.75943613	-2.0042214e-17	0.2124554
7.500442710351595e-10	-1.2016402e-08	7.3744495e-09	0.7573319	-2.0045543e-17	0.21275538
7.525129340056076e-10	-1.017279e-08	3.0287917e-09	0.7582518	-2.0046998e-17	0.21253312
7.550309897484275e-10	-6.99585e-09	-1.975299e-10	0.76151013	-2.0049521e-17	0.21193352
7.575490439165798e-10	-4.510266e-09	-9.218062e-10	0.7665553	-2.0054446e-17	0.21265319
7.600177783120164e-10	-2.6008102e-09	-1.7119257e-09	0.7729055	-2.0062048e-17	0.21313247
7.625358995075443e-10	6.5843296e-11	-1.218101e-09	0.7804883	-2.0072533e-17	0.21365625
7.650046583140053e-10	1.1193361e-09	-1.6460824e-10	0.7886379	-2.008509e-17	0.2138063
7.675227455406792e-10	8.230412e-10	1.0637807e-09	0.79732466	-2.009955e-17	0.2153562
7.700408526294548e-10	1.6131608e-09	4.4444226e-10	0.8061007	-2.0114892e-17	0.21599068
7.725095887896058e-10	2.7654186e-09	1.8106907e-09	0.81456405	-2.0129986e-17	0.21643132
7.75027698657035e-10	1.9752988e-09	2.757188e-09	0.8228495	-2.0144654e-17	0.21849582
7.775457871574377e-10	4.938247e-10	2.9876397e-09	0.83060724	-2.0157938e-17	0.2194485
7.80014503159899e-10	-3.2921648e-11	2.6008102e-09	0.8375775	-2.0169186e-17	0.22005415
7.825325664043823e-10	5.5966803e-10	3.1604783e-09	0.843982	-2.01786e-17	0.22164455
7.850012558599753e-10	1.0205711e-09	3.6872247e-09	0.84958243	-2.018573e-17	0.22135426
7.875193075064502e-10	8.5596286e-10	3.9835193e-09	0.8546665	-2.0190885e-17	0.22287917
7.900373663345496e-10	1.3497876e-09	2.5678886e-09	0.8592093	-2.019397e-17	0.22274107
7.925060392626122e-10	1.0205711e-09	4.1481276e-09	0.86323583	-2.019511e-17	0.22334467
7.950240712324075e-10	-2.0411421e-09	6.913546e-09	0.86700404	-2.0194458e-17	0.22379094
7.975421155433715e-10	-3.7201462e-09	4.9053255e-09	0.87051946	-2.0192084e-17	0.2229226
8.000107684839817e-10	-2.5678886e-09	2.3045155e-09	0.8737976	-2.0188153e-17	0.22086205
8.025288116555149e-10	-6.5843296e-11	1.777769e-09	0.87703896	-2.0182532e-17	0.21929376
8.050468506652027e-10	6.58433e-10	2.633732e-09	0.8802399	-2.0175248e-17	0.21838085
8.075155379857823e-10	4.609031e-10	3.1604783e-09	0.8833948	-2.016638e-17	0.21626554
8.100335759897147e-10	0	5.3991505e-09	0.88668555	-2.0155379e-17	0.21622722
8.125022593172975e-10	-2.3045155e-09	6.2551133e-09	0.89003855	-2.0142372e-17	0.2150947
8.150202986586141e-10	-3.4238514e-09	3.6213814e-09	0.89364856	-2.0126416e-17	0.21441785
8.175383650462948e-10	-2.9629483e-09	1.8436124e-09	0.89751947	-2.010714e-17	0.2140545
8.200070480376116e-10	-1.316866e-09	1.316866e-09	0.90164393	-2.008425e-17	0.21350299
8.225251226849037e-10	-1.0864144e-09	2.633732e-09	0.90627605	-2.0055755e-17	0.21332991
8.250431962026919e-10	-2.732497e-09	3.1604783e-09	0.91143805	-2.0020646e-17	0.21383159
8.275119067913909e-10	-4.7407176e-09	3.1604783e-09	0.91711515	-1.9977998e-17	0.21361801
8.300300049765846e-10	-7.012311e-09	2.3703588e-09	0.92362547	-1.9923669e-17	0.21357639
8.325481089692549e-10	-8.164569e-09	-3.950598e-10	0.9308988	-1.985511e-17	0.21421577
8.350168475594917e-10	-9.876494e-09	-2.5020452e-09	0.93867046	-1.9769484e-17	0.2152044
8.375349725024377e-10	-1.0304476e-08	-6.847703e-09	0.9468441	-1.9655821e-17	0.21530738
8.400037398177019e-10	-1.0008181e-08	-1.158842e-08	0.9540723	-1.9506391e-17	0.21238472
8.425218885513632e-10	-8.427942e-09	-1.817275e-08	0.9582036	-1.9300903e-17	0.20784403
8.450400551761904e-10	-2.115216e-09	-2.436202e-08	0.95394754	-1.9065568e-17	0.20344752
8.475088396846843e-10	7.7695095e-09	-2.5810573e-08	0.9349556	-1.8946208e-17	0.21274354
8.500270130927996e-10	2.0148049e-08	-1.9621302e-08	0.9003839	-1.907385e-17	0.23318282
8.525451583675546e-10	2.594226e-08	-1.0534928e-08	0.8636124	-1.9369076e-17	0.23977499
8.550139914487965e-10	2.6403162e-08	-1.2510226e-09	0.8338835	-1.964584e-17	0.2108028
8.575324455397447e-10	2.2913467e-08	8.164569e-09	0.8089827	-1.9837689e-17	0.20271401
8.600014235048386e-10	1.7678925e-08	1.4220094e-08	0.7895398	-1.994664e-17	0.20385629
8.625192228984738e-10	1.08559135e-08	1.7333248e-08	0.7747949	-2.0005059e-17	0.20809634
8.650371559013573e-10	4.606973e-09	1.7119257e-08	0.76492953	-2.0032041e-17	0.21117818