# t (s)	mx ()	my ()	mz ()	E_total (J)	MaxAngle (rad)
0	1.3497876e-09	4.609031e-10	0.97953576	-2.0725773e-17	0.26627177
2.5225704757287636e-12	1.5061654e-09	7.7365875e-10	0.97526604	-2.0709729e-17	0.25014186
5.049579775566495e-12	1.0534927e-09	1.0041102e-09	0.9719058	-2.0681595e-17	0.24183416
7.522861087673573e-12	8.5596286e-10	1.1522577e-09	0.9697443	-2.0645785e-17	0.23797381
1.0044629499871207e-11	9.547279e-10	1.1851794e-09	0.96901554	-2.06045e-17	0.23737457
1.2516239896639404e-11	8.230412e-10	1.4485525e-09	0.96990263	-2.0562944e-17	0.23730968
1.5036714496813278e-11	2.6337318e-10	2.0411421e-09	0.9723745	-2.0522215e-17	0.24054053
1.750730752296826e-11	-5.2674637e-10	1.5802392e-09	0.97610056	-2.0485507e-17	0.24640472
2.0026980813408833e-11	-3.292165e-10	7.901196e-10	0.9808322	-2.0452405e-17	0.26303834
2.254639746501679e-11	-1.0534927e-09	3.950598e-10	0.9858606	-2.0424838e-17	0.3301982
2.50162120923263e-11	-9.218062e-10	-9.218062e-10	0.98995525	-2.0406623e-17	0.71076065
2.7522474245990818e-11	3.6213813e-10	-3.555538e-09	0.99193823	-2.0777693e-17	0.11515048
3.000081334271742e-11	4.115206e-09	-2.633732e-09	0.9922681	-2.0873754e-17	0.08880577
3.252470755969564e-11	6.79009e-09	1.316866e-09	0.99222654	-2.0891499e-17	0.08880241
3.5047692204065215e-11	4.7242565e-09	6.716016e-09	0.9922269	-2.0898162e-17	0.08880375
3.751392914982626e-11	-2.2057505e-09	8.823002e-09	0.9924177	-2.090504e-17	0.08880779
4.002884137467705e-11	-8.794196e-09	2.1069855e-09	0.99271774	-2.0919484e-17	0.088813834
4.254713273301692e-11	-5.99174e-09	-8.032882e-09	0.9929742	-2.0936246e-17	0.08879906
4.501819507610099e-11	5.3003855e-09	-1.0600771e-08	0.99314946	-2.094804e-17	0.088835336
4.7536938574037374e-11	1.3678945e-08	-1.2510226e-09	0.99325925	-2.0954948e-17	0.08878695
5.000240168261918e-11	8.818887e-09	1.158842e-08	0.9933717	-2.0959799e-17	0.08882459
5.251740003286213e-11	-6.18927e-09	1.2641913e-08	0.9935244	-2.0965801e-17	0.08884407
5.503499203016756e-11	-1.456783e-08	-6.58433e-10	0.99364895	-2.0972496e-17	0.08879838
5.750458675762818e-11	-6.1975003e-09	-1.4814741e-08	0.99370015	-2.0977901e-17	0.08881249
6.002211613251248e-11	1.11686695e-08	-1.3695406e-08	0.99375135	-2.0981635e-17	0.088832654
6.253714649939603e-11	1.8897026e-08	3.2921648e-09	0.99386513	-2.0984551e-17	0.08885953
6.500309107800547e-11	6.9999655e-09	1.9325007e-08	0.9939489	-2.098762e-17	0.0888051
6.75202641759232e-11	-1.4683056e-08	1.5539019e-08	0.99397	-2.0990755e-17	0.08880779
7.003836902925888e-11	-2.1831168e-08	-7.045233e-09	0.99397635	-2.0993341e-17	0.0888172
7.25059944092387e-11	-3.9876347e-09	-2.4888767e-08	0.99401796	-2.0995174e-17	0.08882593
7.502128226102595e-11	2.1831168e-08	-1.6329137e-08	0.99409586	-2.099669e-17	0.088846765
7.753685219101631e-11	2.6456659e-08	1.237854e-08	0.99413913	-2.0998215e-17	0.08880241
8.00044171288633e-11	1.777769e-09	3.1078038e-08	0.9941335	-2.0999621e-17	0.08880981
8.252192064467793e-11	-2.8180931e-08	1.6131608e-08	0.99412334	-2.1000822e-17	0.08881518
8.503857222014701e-11	-2.869739e-08	-1.9226242e-08	0.99414825	-2.100173e-17	0.088819884
8.750479299660781e-11	4.0575934e-09	-3.7003932e-08	0.99419767	-2.1002473e-17	0.088833995
9.002061108676861e-11	3.7699404e-08	-1.3695406e-08	0.99422246	-2.1003203e-17	0.08880308
9.25373881249263e-11	3.1851695e-08	2.9234425e-08	0.99421155	-2.1003864e-17	0.08880846
9.500513937631412e-11	-1.1444388e-08	4.4707598e-08	0.99419934	-2.100441e-17	0.08881182
9.752159785700311e-11	-4.8094414e-08	1.0403241e-08	0.9942134	-2.100485e-17	0.08881518
1.0003736375636482e-10	-3.3024527e-08	-4.055947e-08	0.99424475	-2.1005223e-17	0.08882325
1.0250402090280772e-10	2.2119233e-08	-5.175283e-08	0.99425787	-2.1005562e-17	0.08880174
1.050206708170727e-10	6.0781595e-08	-3.8189114e-09	0.99424756	-2.1005866e-17	0.08880644
1.0753751653729685e-10	3.3625348e-08	5.6032647e-08	0.9942374	-2.1006124e-17	0.08880913
1.100045517276208e-10	-3.551423e-08	5.9390654e-08	0.99424636	-2.1006333e-17	0.08881115
1.1252048258352633e-10	-7.277948e-08	-5.79421e-09	0.9942661	-2.100651e-17	0.08881585
1.150366038417527e-10	-2.885994e-08	-7.295437e-08	0.9942729	-2.1006675e-17	0.0888004
1.1750382749376686e-10	5.546475e-08	-6.373631e-08	0.9942643	-2.1006811e-17	0.08880443
1.2002049022841716e-10	8.877323e-08	2.2386722e-08	0.9942566	-2.1006932e-17	0.08880644
1.225368110169351e-10	2.2528695e-08	9.507772e-08	0.994263	-2.1007033e-17	0.08880981
1.2500353455907395e-10	-7.753048e-08	6.768691e-08	0.99427545	-2.1007117e-17	0.08881115
1.2751972884985618e-10	-1.0129991e-07	-4.253477e-08	0.9942789	-2.1007191e-17	0.08880107
1.3003623002872923e-10	-6.9012005e-09	-1.1825456e-07	0.994272	-2.1007259e-17	0.08880443
1.325034693960706e-10	1.0913115e-07	-6.663342e-08	0.99426675	-2.1007314e-17	0.0888051
1.3501978158702523e-10	1.1707556e-07	7.176919e-08	0.9942712	-2.1007365e-17	0.08880712
1.3753591718471236e-10	-1.18867725e-08	1.4577707e-07	0.99427944	-2.1007403e-17	0.08880846
1.4000283396161246e-10	-1.4299518e-07	6.0444144e-08	0.99428093	-2.1007438e-17	0.08880107
1.4251930422581206e-10	-1.2581008e-07	-1.0850975e-07	0.99427575	-2.100747e-17	0.08880308
1.4503577362871652e-10	4.4444224e-08	-1.7356294e-07	0.99427223	-2.1007497e-17	0.08880375
1.475027388314126e-10	1.8692911e-07	-4.569525e-08	0.9942754	-2.100752e-17	0.0888051
1.5001892249201453e-10	1.342051e-07	1.561803e-07	0.9942808	-2.1007537e-17	0.08880577
1.5253519810141783e-10	-8.509423e-08	2.0253398e-07	0.9942815	-2.1007554e-17	0.0888004
1.550022917037564e-10	-2.3367787e-07	2.0411422e-08	0.99427766	-2.1007567e-17	0.08880241
1.5751871642245148e-10	-1.3113927e-07	-2.1438578e-07	0.99427533	-2.1007582e-17	0.08880375
1.6003501640897041e-10	1.4229148e-07	-2.2939805e-07	0.99427766	-2.1007593e-17	0.08880443
1.6250190406790165e-10	2.8829487e-07	1.896287e-08	0.99428105	-2.1007602e-17	0.08880443
1.650182106752462e-10	1.2072368e-07	2.8510146e-07	0.99428135	-2.1007608e-17	0.0888004
1.6753461255826163e-10	-2.1425409e-07	2.513897e-07	0.9942785	-2.1007615e-17	0.08880241
1.7000166549948705e-10	-3.444798e-07	-7.769509e-08	0.994277	-2.1007623e-17	0.08880308
1.7251798900190377e-10	-9.0602434e-08	-3.672739e-07	0.9942788	-2.1007626e-17	0.08880375
1.7503425919120567e-10	3.0806845e-07	-2.6337318e-07	0.99428105	-2.1007633e-17	0.08880375
1.775012281389182e-10	4.0368113e-07	1.592091e-07	0.99428093	-2.1007635e-17	0.0888004
1.8001762031375494e-10	4.1407205e-08	4.624833e-07	0.994279	-2.100764e-17	0.08880241
1.8253399680860684e-10	-4.2237653e-07	2.6100284e-07	0.9942781	-2.1007643e-17	0.08880241
1.850009861572094e-10	-4.5758006e-07	-2.6943079e-07	0.9942793	-2.1007645e-17	0.08880308
1.8751727340498402e-10	3.862121e-08	-5.6730585e-07	0.9942809	-2.1007645e-17	0.08880241
1.9003359255258728e-10	5.624993e-07	-2.35719e-07	0.99428076	-2.1007646e-17	0.08880174
1.9250062130832519e-10	5.045325e-07	4.134959e-07	0.9942793	-2.100765e-17	0.08880241
1.9501699052044694e-10	-1.529581e-07	6.808197e-07	0.99427885	-2.1007653e-17	0.08880174
1.9753331836682785e-10	-7.241775e-07	1.8027895e-07	0.9942796	-2.100765e-17	0.08880241
2.0000027577291608e-10	-5.316188e-07	-5.950917e-07	0.99428064	-2.1007651e-17	0.08880241
2.0251660498218172e-10	3.1523302e-07	-7.94959e-07	0.9942804	-2.1007651e-17	0.08880107
2.0503295853495714e-10	9.133165e-07	-7.980208e-08	0.99427956	-2.1007655e-17	0.08880174
2.0754931051984646e-10	5.1566826e-07	8.350247e-07	0.9942792	-2.1007653e-17	0.08880174
2.1001630553307264e-10	-5.311661e-07	9.0455524e-07	0.99427986	-2.1007655e-17	0.08880174
2.1253261401316648e-10	-1.1198258e-06	-7.506136e-08	0.9942805	-2.1007655e-17	0.08880174
2.1504894432169016e-10	-4.647755e-07	-1.1088011e-06	0.99428034	-2.1007656e-17	0.08880174
2.175159606475926e-10	8.166668e-07	-9.942338e-07	0.9942796	-2.1007656e-17	0.08880241
2.2003230215533504e-10	1.3440346e-06	3.0380096e-07	0.9942795	-2.1007656e-17	0.08880174
2.225486229636701e-10	3.547719e-07	1.4319601e-06	0.9942799	-2.1007658e-17	0.08880241
2.2501560996271274e-10	-1.1757309e-06	1.0505956e-06	0.9942804	-2.1007656e-17	0.08880241
2.2753193885569847e-10	-1.5692598e-06	-6.220875e-07	0.9942802	-2.1007658e-17	0.08880174
2.3004828810052826e-10	-1.5682639e-07	-1.8009458e-06	0.9942796	-2.1007656e-17	0.08880174
2.3251528613361171e-10	1.6248686e-06	-1.0488837e-06	0.9942796	-2.1007658e-17	0.08880241
2.3503160135318694e-10	1.7841064e-06	1.050859e-06	0.99428	-2.1007655e-17	0.08880241
2.3754792986002734e-10	-1.4945606e-07	2.2116762e-06	0.9942803	-2.1007655e-17	0.08880174
2.400149329246075e-10	-2.164833e-06	9.634191e-07	0.9942801	-2.1007658e-17	0.08880174
2.42531263095848e-10	-1.961089e-06	-1.6105271e-06	0.99427986	-2.1007656e-17	0.08880241
2.450475959794428e-10	6.0162256e-07	-2.6507194e-06	0.9942798	-2.1007658e-17	0.08880174
2.4751459763451313e-10	2.8070192e-06	-7.5667117e-07	0.99428004	-2.1007656e-17	0.08880241
2.5003091399236167e-10	2.0719117e-06	2.3233465e-06	0.9942802	-2.1007656e-17	0.08880174
2.5254724717485625e-10	-1.229603e-06	3.097137e-06	0.99428004	-2.1007658e-17	0.08880174
2.550142449798937e-10	-3.5422088e-06	3.8491993e-07	0.99427986	-2.100766e-17	0.08880174
2.5753058617401125e-10	-2.0676976e-06	-3.206437e-06	0.9942799	-2.1007658e-17	0.08880241
2.6004691261914724e-10	2.0776606e-06	-3.5186658e-06	0.99428004	-2.1007656e-17	0.08880174
2.625139051822045e-10	4.3650484e-06	2.0516771e-07	0.99428004	-2.1007656e-17	0.08880174
2.6503023139195964e-10	1.8980606e-06	4.276259e-06	0.99428004	-2.1007658e-17	0.08880174
2.6754656384274467e-10	-3.1823795e-06	3.8689523e-06	0.99427986	-2.1007658e-17	0.08880241
2.700135596466995e-10	-5.247217e-06	-1.0753528e-06	0.99427986	-2.1007658e-17	0.08880174
2.7252989463437933e-10	-1.4878034e-06	-5.5393966e-06	0.99428004	-2.1007656e-17	0.08880241
2.750462201311088e-10	4.5891584e-06	-4.082153e-06	0.99428004	-2.1007656e-17	0.08880174
2.7751321586615727e-10	6.1534183e-06	2.2976676e-06	0.99428004	-2.1007658e-17	0.08880174
2.800295557727721e-10	7.530992e-07	6.992163e-06	0.9942799	-2.1007658e-17	0.08880241
2.82545893244677e-10	-6.331619e-06	4.0757e-06	0.9942799	-2.100766e-17	0.08880241
2.8501287788889475e-10	-7.016735e-06	-3.9486226e-06	0.99428004	-2.1007658e-17	0.08880174
2.87529212731524e-10	4.1406793e-07	-8.611776e-06	0.99428004	-2.1007658e-17	0.08880174
2.9004554523965475e-10	8.443131e-06	-3.7360803e-06	0.99428004	-2.1007658e-17	0.08880107
2.9251252988909447e-10	7.752513e-06	6.1147352e-06	0.9942799	-2.1007658e-17	0.08880174
2.9502886569805516e-10	-2.132895e-06	1.0355176e-05	0.9942799	-2.1007658e-17	0.08880241
2.975451904172817e-10	-1.0935222e-05	2.9271296e-06	0.99428004	-2.1007658e-17	0.08880174
3.00012187197565e-10	-8.231984e-06	-8.874623e-06	0.99428004	-2.1007658e-17	0.08880174
3.025285177004145e-10	4.546208e-06	-1.2139397e-05	0.99428004	-2.1007658e-17	0.08880241
3.0504485247657514e-10	1.380306e-05	-1.4737046e-06	0.99428	-2.1007658e-17	0.08880174
3.0751183706308374e-10	8.292506e-06	1.23115115e-05	0.9942799	-2.1007656e-17	0.08880107
3.1002816854671333e-10	-7.804986e-06	1.3845364e-05	0.99428004	-2.1007655e-17	0.08880174
3.1254450489313307e-10	-1.699771e-05	-8.288354e-07	0.99428004	-2.1007658e-17	0.08880174
3.1501149789486607e-10	-7.711431e-06	-1.648321e-05	0.99428	-2.1007656e-17	0.08880174
3.1752783372918956e-10	1.2079459e-05	-1.5291711e-05	0.9942799	-2.1007658e-17	0.08880241
3.200441697348621e-10	2.0435056e-05	4.225296e-06	0.99428004	-2.1007656e-17	0.08880174
3.2251115412840494e-10	6.2207882e-06	2.1429623e-05	0.99428004	-2.1007658e-17	0.08880174
3.2502748623729917e-10	-1.7527873e-05	1.6236694e-05	0.99428004	-2.1007658e-17	0.08880174
3.2754381072551976e-10	-2.3952634e-05	-8.988532e-06	0.9942799	-2.1007658e-17	0.08880174
3.3001081607097544e-10	-3.4741104e-06	-2.7136788e-05	0.99428	-2.100766e-17	0.08880241
3.3252713516086486e-10	2.43103e-05	-1.634718e-05	0.99428	-2.1007658e-17	0.08880174
3.3504347252788495e-10	2.7314356e-05	1.5426558e-05	0.99428004	-2.1007658e-17	0.08880241
3.375104739106104e-10	-9.309707e-07	3.353215e-05	0.99428	-2.1007658e-17	0.08880241
3.400268089750824e-10	-3.2545544e-05	1.5198477e-05	0.99428	-2.1007658e-17	0.08880174
3.425431383342509e-10	-3.0165682e-05	-2.3862138e-05	0.99428	-2.1007656e-17	0.08880174
3.4501013178686583e-10	7.4810127e-06	-4.044464e-05	0.99428	-2.1007658e-17	0.08880174
3.4752646544291883e-10	4.230608e-05	-1.2246985e-05	0.99428004	-2.1007658e-17	0.08880174
3.500428069824398e-10	3.2024556e-05	3.462093e-05	0.9942799	-2.1007656e-17	0.08880107
3.5250978136042095e-10	-1.6721477e-05	4.757909e-05	0.9942799	-2.1007658e-17	0.08880107
3.5502612219988027e-10	-5.3568736e-05	6.8242625e-06	0.99428	-2.1007656e-17	0.08880174
3.57542453083115e-10	-3.2237287e-05	-4.8004506e-05	0.9942799	-2.1007656e-17	0.08880174
3.6000944855960234e-10	2.9268333e-05	-5.446966e-05	0.9942799	-2.1007656e-17	0.08880107
3.625257836847087e-10	6.618624e-05	1.8794311e-06	0.9942799	-2.1007656e-17	0.08880174
3.650421188435483e-10	2.9961675e-05	6.425884e-05	0.9942799	-2.1007656e-17	0.08880174
3.6750911302284896e-10	-4.577093e-05	6.04425e-05	0.9942799	-2.1007656e-17	0.08880241
3.700254479093787e-10	-7.9821366e-05	-1.4810758e-05	0.9942799	-2.1007656e-17	0.08880174
3.7254178957306055e-10	-2.4125127e-05	-8.3516956e-05	0.99428	-2.1007653e-17	0.08880241
3.750087821516311e-10	6.6894885e-05	-6.4551976e-05	0.99427986	-2.1007655e-17	0.08880174
3.7752511696753433e-10	9.389374e-05	3.3058997e-05	0.99427986	-2.1007651e-17	0.08880241
3.800414527211134e-10	1.3411242e-05	0.00010574315	0.99427986	-2.1007656e-17	0.08880174
3.825084316832626e-10	-9.3260496e-05	6.5533044e-05	0.99427986	-2.1007655e-17	0.08880174
3.8502477868598785e-10	-0.00010748299	-5.7828718e-05	0.99427986	-2.1007653e-17	0.08880174
3.875411088890321e-10	3.779858e-06	-0.0001306385	0.99427986	-2.1007648e-17	0.08880174
3.900081227143099e-10	0.00012539027	-6.172506e-05	0.99427986	-2.1007648e-17	0.08880174
3.925244467470025e-10	0.000119258904	9.041022e-05	0.9942798	-2.1007648e-17	0.08880241
3.9504079096991095e-10	-2.9316869e-05	0.0001575451	0.9942798	-2.1007646e-17	0.08880174
3.9750778702988206e-10	-0.00016358802	5.103369e-05	0.9942798	-2.1007646e-17	0.08880174
4.000241163195401e-10	-0.0001273533	-0.00013210627	0.9942796	-2.1007645e-17	0.08880107
4.02540463480856e-10	6.534779e-05	-0.00018530227	0.9942796	-2.1007643e-17	0.08880174
4.0500745145997197e-10	0.0002078393	-3.0849296e-05	0.99427956	-2.100764e-17	0.08880174
4.0752378989792465e-10	0.00012926989	0.00018415053	0.9942795	-2.1007641e-17	0.08880241
4.100401213300019e-10	-0.00011424442	0.00021211208	0.9942795	-2.1007633e-17	0.08880241
4.125071185390464e-10	-0.00025762452	-1.9741137e-06	0.9942793	-2.100763e-17	0.08880241
4.1502346067120897e-10	-0.00012174261	-0.00024756105	0.9942793	-2.1007626e-17	0.08880241
4.1753979280275254e-10	0.000178558	-0.00023534054	0.9942791	-2.1007623e-17	0.08880241
4.20006778924163e-10	0.00031173357	5.1158004e-05	0.9942791	-2.100762e-17	0.08880174
4.225231135457981e-10	0.00010063192	0.00032295598	0.99427897	-2.1007613e-17	0.08880107
4.250394557216015e-10	-0.00026085952	0.00025131227	0.9942788	-2.1007605e-17	0.08880174
4.275064664026643e-10	-0.00036796936	-0.000120983896	0.99427867	-2.1007597e-17	0.08880174
4.300227844381645e-10	-6.0782044e-05	-0.00041029538	0.99427843	-2.100759e-17	0.08880174
4.32539116983795e-10	0.00036358755	-0.0002550842	0.99427825	-2.1007577e-17	0.08880241
4.350061191259529e-10	0.00042289065	0.00021620838	0.994278	-2.1007569e-17	0.08880241
4.3752243444277975e-10	-4.009515e-06	0.000508567	0.99427766	-2.1007554e-17	0.08880241
4.4003880153067745e-10	-0.0004887525	0.00024022044	0.99427736	-2.1007537e-17	0.08880174
4.425057624096058e-10	-0.00047141616	-0.00034195316	0.99427694	-2.1007522e-17	0.08880174
4.450221263802229e-10	0.00010109883	-0.000615368	0.9942764	-2.1007497e-17	0.08880174
4.4753845578322913e-10	0.00063757505	-0.00019855231	0.9942759	-2.100748e-17	0.08880241
4.500054455689174e-10	0.0005064233	0.0005034698	0.99427533	-2.1007453e-17	0.08880174
4.5252177310933856e-10	-0.00023888936	0.00072640204	0.99427474	-2.1007423e-17	0.08880174
4.5503813111132326e-10	-0.0008099968	0.00011994687	0.9942739	-2.1007383e-17	0.08880174
4.5750511709754067e-10	-0.0005183323	-0.0007057524	0.99427307	-2.100735e-17	0.08880241
4.600214568969971e-10	0.00042679277	-0.0008349154	0.994272	-2.10073e-17	0.08880174
4.625377936788968e-10	0.0010040764	7.787682e-06	0.99427086	-2.100725e-17	0.08880241
4.650048086745895e-10	0.0004946643	0.0009530894	0.9942696	-2.1007193e-17	0.08880241
4.675211503696962e-10	-0.00067487336	0.00093103753	0.99426806	-2.1007122e-17	0.08880241
4.700375125136258e-10	-0.0012152087	-0.00019905732	0.9942662	-2.1007046e-17	0.08880308
4.725045016142189e-10	-0.00041953137	-0.0012483121	0.99426436	-2.1006958e-17	0.08880241
4.750208675651406e-10	0.000993497	-0.0010009408	0.9942619	-2.1006854e-17	0.08880241
4.775372069365127e-10	0.0014351854	0.00047036135	0.99425936	-2.1006735e-17	0.08880174
4.800041967589458e-10	0.00027324777	0.0015919677	0.99425644	-2.1006602e-17	0.08880241
4.825206036649358e-10	-0.0013926476	0.0010261202	0.994253	-2.1006449e-17	0.08880241
4.850370015186251e-10	-0.0016511547	-0.0008401954	0.99424905	-2.1006272e-17	0.08880174
4.875040083234166e-10	-3.1990516e-05	-0.0019812447	0.99424446	-2.1006073e-17	0.08880241
4.90020384544177e-10	0.0018810778	-0.0009826039	0.99423933	-2.100584e-17	0.08880241
4.925367649921368e-10	0.0018445667	0.0013283197	0.9942333	-2.100557e-17	0.08880375
4.950038169285902e-10	-0.00033212782	0.0024086323	0.9942265	-2.1005272e-17	0.08880174
4.975202284506554e-10	-0.0024651738	0.0008402006	0.99421877	-2.1004918e-17	0.08880375
5.00036636191034e-10	-0.0019898613	-0.0019554603	0.99420965	-2.1004516e-17	0.08880241
5.025037366887714e-10	0.0008513081	-0.0028606758	0.9941995	-2.1004065e-17	0.08880308
5.050201203088169e-10	0.003147763	-0.00056212296	0.9941876	-2.1003532e-17	0.08880375
5.075365966552767e-10	0.002053709	0.002742111	0.99417394	-2.1002926e-17	0.08880308
5.100037268567085e-10	-0.0015613751	0.0033167813	0.9941586	-2.1002238e-17	0.08880308
5.125202174503838e-10	-0.0039270376	0.00010450352	0.99414057	-2.1001436e-17	0.08880375
5.15036740734765e-10	-0.0019942983	-0.0037079267	0.9941199	-2.1000514e-17	0.0888051
5.175039033576521e-10	0.002501673	-0.0037485517	0.99409676	-2.0999477e-17	0.08880375
5.20020484532791e-10	0.004795985	0.0005828484	0.9940693	-2.0998256e-17	0.08880443
5.225371062378339e-10	0.001761893	0.0048713135	0.9940379	-2.0996858e-17	0.0888051
5.250043887296287e-10	-0.0037146236	0.0041204994	0.9940024	-2.0995278e-17	0.08880577
5.275210996098962e-10	-0.0057437173	-0.0015562731	0.9939606	-2.0993424e-17	0.0888051
5.300378237499201e-10	-0.0013005306	-0.0062510544	0.9939125	-2.0991285e-17	0.0888051
5.325053089776655e-10	0.0052465014	-0.00439363	0.993858	-2.0988863e-17	0.08880577
5.350222354941632e-10	0.0067605455	0.00287678	0.9937938	-2.0986019e-17	0.08880577
5.375392779295357e-10	0.0005520924	0.007872068	0.99371946	-2.0982723e-17	0.0888051
5.400069604756894e-10	-0.0071515	0.0045344653	0.9936349	-2.0978984e-17	0.08880846
5.425242429423217e-10	-0.00785129	-0.004609166	0.9935348	-2.097457e-17	0.08880913
5.450413536582651e-10	0.00053109135	-0.00978004	0.9934183	-2.0969436e-17	0.08880644
5.475094021248896e-10	0.009501388	-0.0045378	0.99328506	-2.0963579e-17	0.08880981
5.500270915380568e-10	0.0090681035	0.006818223	0.9931262	-2.0956613e-17	0.08881115
5.525449082617341e-10	-0.0019684753	0.012077417	0.9929395	-2.0948453e-17	0.08880913
5.550136029566581e-10	-0.012412199	0.0044726287	0.99272394	-2.093907e-17	0.08881048
5.575319235487385e-10	-0.010580821	-0.009568234	0.9924639	-2.0927799e-17	0.088813834
5.600015889337786e-10	0.0033695507	-0.015052667	0.9921606	-2.0914726e-17	0.08881249
5.625207761015947e-10	0.016089797	-0.0046070064	0.99179053	-2.0898874e-17	0.08881316
5.650403546545538e-10	0.012854497	0.012883662	0.9913436	-2.087989e-17	0.08881653
5.675109162500796e-10	-0.00495339	0.019180045	0.9908109	-2.0857483e-17	0.08881518
5.700313549288713e-10	-0.02088203	0.0057747145	0.99014306	-2.0829748e-17	0.088813834
5.725034864792114e-10	-0.017428031	-0.01612257	0.9893287	-2.0796452e-17	0.08881854
5.750255114557285e-10	0.005126756	-0.025672955	0.9882795	-2.0754453e-17	0.088820554
5.775486830689692e-10	0.027033549	-0.01055098	0.98692685	-2.070185e-17	0.088813834
5.800233669206401e-10	0.026933352	0.017800273	0.98518586	-2.0636798e-17	0.08882392
5.825486965084703e-10	0.001727011	0.03615174	0.9827993	-2.05528e-17	0.08882459
5.850230970347466e-10	-0.02974691	0.027620528	0.9795963	-2.0450186e-17	0.08881451
5.875428690998964e-10	-0.04521671	-0.0030841362	0.9751288	-2.0327747e-17	0.105717845
5.900126205290584e-10	-0.034776878	-0.03480684	0.96946174	-2.0206103e-17	0.14635596
5.925314590573952e-10	-0.0067198076	-0.05080782	0.9628663	-2.0101781e-17	0.18758759
5.950010438097045e-10	0.022140907	-0.04651407	0.9563087	-2.0024148e-17	0.2155143
5.975201372400639e-10	0.041603237	-0.029054595	0.9499877	-1.996623e-17	0.23730613
6.000390846963018e-10	0.048805032	-0.008406792	0.9444147	-1.9922676e-17	0.2395593
6.02508120787928e-10	0.04760171	0.009113883	0.9399445	-1.9882955e-17	0.2583922
6.050260338466811e-10	0.041998737	0.022758394	0.93650556	-1.983748e-17	0.23841387
6.075441704382284e-10	0.034270532	0.032610174	0.93417764	-1.9785295e-17	0.21875058
6.10013172628914e-10	0.02540994	0.039561138	0.9327976	-1.9727702e-17	0.22666669
6.125312342514629e-10	0.015031209	0.044566393	0.9318921	-1.9663675e-17	0.26185197
6.150492063257971e-10	0.003363507	0.04714953	0.93095756	-1.9600716e-17	0.29507387
6.175179154587676e-10	-0.008513944	0.046616156	0.9296711	-1.9548207e-17	0.32302806
6.200360467435292e-10	-0.019797174	0.042794604	0.92802924	-1.9509574e-17	0.34831658
6.225047593080958e-10	-0.029159758	0.036355775	0.92634463	-1.9490648e-17	0.35173377
6.250228400724136e-10	-0.036965832	0.027610721	0.924609	-1.9501824e-17	0.3264393
6.275409205335314e-10	-0.043344054	0.016333817	0.92273647	-1.9557705e-17	0.3292103
6.300096388773981e-10	-0.04675431	0.0025314866	0.9210883	-1.9603984e-17	0.35238907
6.325277655458591e-10	-0.04506719	-0.012215776	0.91988456	-1.9597553e-17	0.370034
6.350459015719256e-10	-0.038070995	-0.024336312	0.9189188	-1.9560854e-17	0.38277602
6.375146940882501e-10	-0.028223738	-0.031556793	0.91804343	-1.9522396e-17	0.411879
6.400328639005165e-10	-0.017956367	-0.034024063	0.91746265	-1.9494412e-17	0.45810214
6.425016594452685e-10	-0.009599514	-0.03290159	0.91730434	-1.9480677e-17	0.48771667
6.450198356445474e-10	-0.0034171308	-0.029927943	0.9173595	-1.947735e-17	0.50817645
6.475380026575695e-10	0.00096392015	-0.026485285	0.91741735	-1.9478952e-17	0.52032524
6.50006783624159e-10	0.004357634	-0.02313695	0.91739595	-1.9481195e-17	0.544538
6.525249672804643e-10	0.007397163	-0.019582288	0.91737515	-1.94823e-17	0.5826249
6.5504316401112e-10	0.009913337	-0.015627492	0.9175284	-1.9483169e-17	0.5940628
6.575119819609349e-10	0.01137312	-0.011605716	0.9179779	-1.9488362e-17	0.62926275
6.600301145876264e-10	0.011518353	-0.008303557	0.9187487	-1.9505662e-17	0.61087805
6.625481088039171e-10	0.010767501	-0.0068982444	0.9197394	-1.9544759e-17	0.60090405
6.650167423975508e-10	0.010280884	-0.007902671	0.92086875	-1.962385e-17	0.5079167
6.675347614806279e-10	0.012086726	-0.011146058	0.92224205	-1.9797319e-17	0.5168245
6.700034072049305e-10	0.017430201	-0.013202216	0.92362237	-1.9970554e-17	0.52859825
6.725214505610528e-10	0.02284282	-0.010795427	0.9254285	-2.0042384e-17	0.5510405
6.750394649961936e-10	0.0248556	-0.0049187946	0.92819136	-2.0068897e-17	0.55724883
6.77508203055385e-10	0.022756062	0.0011807625	0.9317277	-2.0079467e-17	0.54032576
6.800263034320715e-10	0.017950028	0.0052603376	0.9358822	-2.008292e-17	0.52677596
6.825442368952263e-10	0.012585196	0.006666405	0.9403341	-2.0081618e-17	0.5046308
6.850128746901399e-10	0.008008633	0.0063572344	0.9449149	-2.007675e-17	0.479927
6.875309830574217e-10	0.0041712886	0.0053631556	0.94977057	-2.0069539e-17	0.46776715
6.900491465001484e-10	0.00082270504	0.0040708496	0.95470345	-2.0062766e-17	0.4543877
6.925179468065296e-10	-0.0020314078	0.0023114462	0.95949495	-2.0060809e-17	0.438263
6.950361228832261e-10	-0.0038604327	-6.361173e-05	0.96419084	-2.0069246e-17	0.4247949
6.97504930045893e-10	-0.0037923113	-0.002224724	0.9684186	-2.0092437e-17	0.41748932
7.000231241221807e-10	-0.0019486183	-0.0030136576	0.9721171	-2.0132033e-17	0.42033058
7.02541339064965e-10	0.00036198186	-0.0019206079	0.97502303	-2.0183804e-17	0.4342861
7.050102025500107e-10	0.0018635171	9.239948e-05	0.9771119	-2.0240956e-17	0.46550012
7.075283785624018e-10	0.0024636597	0.0019005567	0.97851884	-2.029957e-17	0.5564593
7.100464544227688e-10	0.0024432328	0.003035071	0.97915465	-2.0350147e-17	0.7142592
7.125151306957018e-10	0.0019026356	0.0034636885	0.9792079	-2.0386589e-17	1.0302165
7.15004802056479e-10	0.0007696869	0.003601502	0.97918236	-2.0529986e-17	0.50340325
7.175400809502642e-10	-0.0013702938	0.0037126543	0.9793648	-2.0651069e-17	0.30685622
7.200148327342355e-10	-0.0021653564	0.002285375	0.97973716	-2.065346e-17	0.2780103
7.225342553910945e-10	-0.0018868207	0.0007382144	0.98074	-2.0643184e-17	0.27739677
7.250025683111505e-10	-0.0010545565	7.2724186e-05	0.9823616	-2.0631234e-17	0.29272804
7.275205937580049e-10	-0.00031885476	0.000272872	0.9845611	-2.0621993e-17	0.30399752
7.300385334035581e-10	-0.00025291712	0.00080119824	0.98710614	-2.0615657e-17	0.3623468
7.325067446753006e-10	-0.00081625767	0.0009555107	0.98969877	-2.061159e-17	0.50142616
7.350239844029837e-10	-0.0014475592	0.00034165138	0.9921454	-2.0611754e-17	1.007111
7.375047351624574e-10	-0.0013541904	-0.00084732345	0.99370104	-2.0943616e-17	0.08880644
7.400303662168058e-10	-0.0003118327	-0.0015908882	0.9939493	-2.0982301e-17	0.08881653
7.425030833265877e-10	0.0010957309	-0.0014327491	0.9940375	-2.099189e-17	0.08881518
7.450219856512596e-10	0.0021044367	-3.243161e-05	0.9940822	-2.0995798e-17	0.08881316
7.475388944636805e-10	0.001422142	0.00200666	0.9941056	-2.0997712e-17	0.08881653
7.500059715079802e-10	-0.0010834477	0.0025556518	0.99411666	-2.0998804e-17	0.08880712
7.525226069980118e-10	-0.0030570477	0.00025584808	0.9941199	-2.0999532e-17	0.088835336
7.550394051071109e-10	-0.0017521295	-0.002869984	0.99412173	-2.0999957e-17	0.08880913
7.575069295586184e-10	0.0018546078	-0.0031457362	0.994118	-2.1000051e-17	0.088813834
7.60023600479218e-10	0.0039176764	0.0002218927	0.99411446	-2.0999805e-17	0.088827275
7.625397826291736e-10	0.001700638	0.0038113662	0.9941023	-2.0999272e-17	0.08881518
7.650067765931246e-10	-0.0027090227	0.003493754	0.9940813	-2.0998574e-17	0.08881653
7.675234982945606e-10	-0.00461922	-0.000912615	0.9940589	-2.0997705e-17	0.08881451
7.700403636006689e-10	-0.001351179	-0.0048598126	0.99403393	-2.0996622e-17	0.088821225
7.725076910154609e-10	0.0039056893	-0.0037357796	0.9940045	-2.0995275e-17	0.08881518
7.750241097721161e-10	0.0054731118	0.0019109092	0.99396914	-2.0993584e-17	0.0888172
7.77540677446576e-10	0.00083580374	0.006158468	0.99392426	-2.0991594e-17	0.08881048
7.800082451636678e-10	-0.005392961	0.0039008786	0.9938694	-2.0989352e-17	0.08880443
7.825252938526975e-10	-0.0063559893	-0.0032575864	0.99380726	-2.0986732e-17	0.08881249
7.850423906190346e-10	9.2722385e-06	-0.007661588	0.9937421	-2.0983704e-17	0.08880913
7.875097770109408e-10	0.007234739	-0.0038848175	0.9936696	-2.0980273e-17	0.08881921
7.900269264526943e-10	0.007260376	0.005026783	0.99357736	-2.0976208e-17	0.0888051
7.92544120525486e-10	-0.0012415702	0.009433328	0.99346274	-2.0971429e-17	0.08880443
7.950123890351069e-10	-0.009550295	0.0036953087	0.9933323	-2.0965892e-17	0.08880644
7.975298587559287e-10	-0.008291805	-0.00726586	0.9931841	-2.0959258e-17	0.08881048
8.000475972222359e-10	0.0027795555	-0.011532997	0.99301565	-2.0951568e-17	0.08881653
8.025161383160367e-10	0.012310648	-0.003384596	0.9928192	-2.0942885e-17	0.08880981
8.050344974766529e-10	0.00945237	0.010059344	0.9925761	-2.0932548e-17	0.08881182
8.075038678174847e-10	-0.004469696	0.014254688	0.99228925	-2.0920461e-17	0.08880779
8.100230005308505e-10	-0.015907805	0.003130875	0.9919415	-2.09056e-17	0.08881451
8.125422164043933e-10	-0.011327924	-0.013481214	0.99152714	-2.088772e-17	0.08881518
8.150122810639134e-10	0.006392896	-0.018026076	0.9910377	-2.08668e-17	0.0888172
8.175327337272274e-10	0.020551773	-0.0036710682	0.9904275	-2.084126e-17	0.08880981
8.200047538285611e-10	0.015152553	0.017094625	0.9896864	-2.0810891e-17	0.08881921
8.225269145950391e-10	-0.007508823	0.024006305	0.9887355	-2.0772651e-17	0.08882257
8.250000338452996e-10	-0.026711646	0.007607459	0.98754275	-2.0725745e-17	0.08881653
8.275231348739632e-10	-0.023447895	-0.020113658	0.98595536	-2.0665339e-17	0.0888219
8.300476613667761e-10	0.0032108882	-0.034410983	0.98383546	-2.0588636e-17	0.0888219
8.325237498025868e-10	0.032305937	-0.021386804	0.9810138	-2.0494104e-17	0.08881854
8.350443440950327e-10	0.041955706	0.011272546	0.977075	-2.0377816e-17	0.091645
8.375143508330922e-10	0.025227426	0.04057507	0.97192734	-2.0254292e-17	0.127983
8.400332617325692e-10	-0.006441482	0.050245743	0.96559197	-2.0140617e-17	0.17275394
8.425026959325722e-10	-0.03433933	0.038426865	0.9590061	-2.0053675e-17	0.20570785
8.450215650146352e-10	-0.048884567	0.014868477	0.9524723	-1.9988505e-17	0.22324292
8.475402767601264e-10	-0.049223177	-0.00868897	0.946532	-1.9940638e-17	0.2540721
8.5000931046239e-10	-0.041325945	-0.026004838	0.9415996	-1.9900599e-17	0.2564767
8.525273433957406e-10	-0.030161442	-0.037301384	0.93766415	-1.985732e-17	0.22299671
8.550452551049342e-10	-0.018540157	-0.043651763	0.9348843	-1.9807263e-17	0.21334653
8.575140743106105e-10	-0.0073841335	-0.046469793	0.9331845	-1.9751634e-17	0.24225691
8.600325002705399e-10	0.004036549	-0.04675183	0.93216777	-1.9688573e-17	0.27003655
8.6250116602732e-10	0.015389966	-0.044498697	0.93136007	-1.9624597e-17	0.29297644
8.650191165572372e-10	0.026317975	-0.039239623	0.9302602	-1.9565647e-17	0.30787712
8.675371791159484e-10	0.03525737	-0.031203628	0.9287731	-1.9520251e-17	0.33330035
8.700058951179573e-10	0.041250795	-0.021488583	0.9271809	-1.9492743e-17	0.34943897
8.725239654285291e-10	0.044563163	-0.010496287	0.92559785	-1.948857e-17	0.35183603
8.750420006795924e-10	0.045528457	0.0016815985	0.92390776	-1.9525512e-17	0.3147414